TITLE="table"
VARIABLES="d" "T" "v" "s" "P" "u" "h" "eta" "lambda" "cp" "cv" "c" "alpha" "beta" "zeta"
ZONE I=50, J=50 DATAPACKING=POINT
5.00000000e-03	3.68500000e+01	2.00000000e+02	1.26378367e+03	1.39853902e+02	2.40638345e+05	2.68609125e+05	7.24157214e-06	1.16396333e-02	1.17321635e+03	1.08291824e+03	1.74067622e+02	0.00000000e+00	0.00000000e+00	0.00000000e+00
5.00000000e-03	4.46051020e+01	2.00000000e+02	1.29091598e+03	1.43353668e+02	2.49154621e+05	2.77825355e+05	7.41207527e-06	1.22419329e-02	1.20366780e+03	1.11337419e+03	1.76046878e+02	0.00000000e+00	0.00000000e+00	0.00000000e+00
5.00000000e-03	5.23602041e+01	2.00000000e+02	1.31812755e+03	1.46853377e+02	2.57906799e+05	2.87277475e+05	7.58307041e-06	1.28589857e-02	1.23403993e+03	1.14375034e+03	1.78005597e+02	0.00000000e+00	0.00000000e+00	0.00000000e+00
5.00000000e-03	6.01153061e+01	2.00000000e+02	1.34541237e+03	1.50353036e+02	2.66894130e+05	2.96964738e+05	7.75451693e-06	1.34903419e-02	1.26429956e+03	1.17401359e+03	1.79944516e+02	0.00000000e+00	0.00000000e+00	0.00000000e+00
5.00000000e-03	6.78704082e+01	2.00000000e+02	1.37276412e+03	1.53852649e+02	2.76115619e+05	3.06886149e+05	7.92637609e-06	1.41355601e-02	1.29441624e+03	1.20413354e+03	1.81864311e+02	0.00000000e+00	0.00000000e+00	0.00000000e+00
5.00000000e-03	7.56255102e+01	2.00000000e+02	1.40017626e+03	1.57352222e+02	2.85570045e+05	3.17040489e+05	8.09861089e-06	1.47942068e-02	1.32436221e+03	1.23408245e+03	1.83765605e+02	0.00000000e+00	0.00000000e+00	0.00000000e+00
5.00000000e-03	8.33806122e+01	2.00000000e+02	1.42764207e+03	1.60851758e+02	2.95255982e+05	3.27426334e+05	8.27118592e-06	1.54658566e-02	1.35411230e+03	1.26383520e+03	1.85648974e+02	0.00000000e+00	0.00000000e+00	0.00000000e+00
5.00000000e-03	9.11357143e+01	2.00000000e+02	1.45515480e+03	1.64351261e+02	3.05171821e+05	3.38042073e+05	8.44406732e-06	1.61500920e-02	1.38364385e+03	1.29336918e+03	1.87514956e+02	0.00000000e+00	0.00000000e+00	0.00000000e+00
5.00000000e-03	9.88908163e+01	2.00000000e+02	1.48270763e+03	1.67850734e+02	3.15315784e+05	3.48885931e+05	8.61722262e-06	1.68465035e-02	1.41293662e+03	1.32266415e+03	1.89364051e+02	0.00000000e+00	0.00000000e+00	0.00000000e+00
5.00000000e-03	1.06645918e+02	2.00000000e+02	1.51029379e+03	1.71350179e+02	3.25685947e+05	3.59955983e+05	8.79062068e-06	1.75546892e-02	1.44197261e+03	1.35170214e+03	1.91196729e+02	0.00000000e+00	0.00000000e+00	0.00000000e+00
5.00000000e-03	1.14401020e+02	2.00000000e+02	1.53790657e+03	1.74849600e+02	3.36280255e+05	3.71250175e+05	8.96423161e-06	1.82742551e-02	1.47073594e+03	1.38046731e+03	1.93013430e+02	0.00000000e+00	0.00000000e+00	0.00000000e+00
5.00000000e-03	1.22156122e+02	2.00000000e+02	1.56553938e+03	1.78348999e+02	3.47096536e+05	3.82766336e+05	9.13802669e-06	1.90048148e-02	1.49921272e+03	1.40894577e+03	1.94814570e+02	0.00000000e+00	0.00000000e+00	0.00000000e+00
5.00000000e-03	1.29911224e+02	2.00000000e+02	1.59318574e+03	1.81848377e+02	3.58132519e+05	3.94502194e+05	9.31197830e-06	1.97459895e-02	1.52739088e+03	1.43712547e+03	1.96600542e+02	0.00000000e+00	0.00000000e+00	0.00000000e+00
5.00000000e-03	1.37666327e+02	2.00000000e+02	1.62083934e+03	1.85347736e+02	3.69385846e+05	4.06455393e+05	9.48605987e-06	2.04974078e-02	1.55526004e+03	1.46499604e+03	1.98371719e+02	0.00000000e+00	0.00000000e+00	0.00000000e+00
5.00000000e-03	1.45421429e+02	2.00000000e+02	1.64849406e+03	1.88847078e+02	3.80854084e+05	4.18623500e+05	9.66024584e-06	2.12587060e-02	1.58281136e+03	1.49254866e+03	2.00128456e+02	0.00000000e+00	0.00000000e+00	0.00000000e+00
5.00000000e-03	1.53176531e+02	2.00000000e+02	1.67614393e+03	1.92346404e+02	3.92534739e+05	4.31004020e+05	9.83451158e-06	2.20295275e-02	1.61003740e+03	1.51977591e+03	2.01871093e+02	0.00000000e+00	0.00000000e+00	0.00000000e+00
5.00000000e-03	1.60931633e+02	2.00000000e+02	1.70378321e+03	1.95845716e+02	4.04425262e+05	4.43594405e+05	1.00088333e-05	2.28095231e-02	1.63693203e+03	1.54667165e+03	2.03599952e+02	0.00000000e+00	0.00000000e+00	0.00000000e+00
5.00000000e-03	1.68686735e+02	2.00000000e+02	1.73140636e+03	1.99345015e+02	4.16523062e+05	4.56392065e+05	1.01831882e-05	2.35983510e-02	1.66349025e+03	1.57323090e+03	2.05315342e+02	0.00000000e+00	0.00000000e+00	0.00000000e+00
5.00000000e-03	1.76441837e+02	2.00000000e+02	1.75900805e+03	2.02844301e+02	4.28825514e+05	4.69394374e+05	1.03575542e-05	2.43956763e-02	1.68970815e+03	1.59944975e+03	2.07017562e+02	0.00000000e+00	0.00000000e+00	0.00000000e+00
5.00000000e-03	1.84196939e+02	2.00000000e+02	1.78658317e+03	2.06343576e+02	4.41329966e+05	4.82598681e+05	1.05319099e-05	2.52011712e-02	1.71558272e+03	1.62532521e+03	2.08706896e+02	0.00000000e+00	0.00000000e+00	0.00000000e+00
5.00000000e-03	1.91952041e+02	2.00000000e+02	1.81412681e+03	2.09842841e+02	4.54033747e+05	4.96002315e+05	1.07062349e-05	2.60145152e-02	1.74111186e+03	1.65085516e+03	2.10383620e+02	0.00000000e+00	0.00000000e+00	0.00000000e+00
5.00000000e-03	1.99707143e+02	2.00000000e+02	1.84163429e+03	2.13342096e+02	4.66934170e+05	5.09602589e+05	1.08805092e-05	2.68353944e-02	1.76629418e+03	1.67603825e+03	2.12047997e+02	0.00000000e+00	0.00000000e+00	0.00000000e+00
5.00000000e-03	2.07462245e+02	2.00000000e+02	1.86910114e+03	2.16841342e+02	4.80028543e+05	5.23396812e+05	1.10547136e-05	2.76635019e-02	1.79112902e+03	1.70087380e+03	2.13700283e+02	0.00000000e+00	0.00000000e+00	0.00000000e+00
5.00000000e-03	2.15217347e+02	2.00000000e+02	1.89652310e+03	2.20340580e+02	4.93314171e+05	5.37382287e+05	1.12288297e-05	2.84985377e-02	1.81561631e+03	1.72536176e+03	2.15340724e+02	0.00000000e+00	0.00000000e+00	0.00000000e+00
5.00000000e-03	2.22972449e+02	2.00000000e+02	1.92389610e+03	2.23839810e+02	5.06788359e+05	5.51556321e+05	1.14028396e-05	2.93402084e-02	1.83975655e+03	1.74950263e+03	2.16969559e+02	0.00000000e+00	0.00000000e+00	0.00000000e+00
5.00000000e-03	2.30727551e+02	2.00000000e+02	1.95121629e+03	2.27339033e+02	5.20448419e+05	5.65916226e+05	1.15767258e-05	3.01882273e-02	1.86355071e+03	1.77329737e+03	2.18587017e+02	0.00000000e+00	0.00000000e+00	0.00000000e+00
5.00000000e-03	2.38482653e+02	2.00000000e+02	1.97848001e+03	2.30838249e+02	5.34291672e+05	5.80459322e+05	1.17504718e-05	3.10423143e-02	1.88700022e+03	1.79674743e+03	2.20193321e+02	0.00000000e+00	0.00000000e+00	0.00000000e+00
5.00000000e-03	2.46237755e+02	2.00000000e+02	2.00568377e+03	2.34337459e+02	5.48315452e+05	5.95182944e+05	1.19240613e-05	3.19021957e-02	1.91010689e+03	1.81985462e+03	2.21788687e+02	0.00000000e+00	0.00000000e+00	0.00000000e+00
5.00000000e-03	2.53992857e+02	2.00000000e+02	2.03282430e+03	2.37836664e+02	5.62517108e+05	6.10084441e+05	1.20974786e-05	3.27676044e-02	1.93287288e+03	1.84262109e+03	2.23373324e+02	0.00000000e+00	0.00000000e+00	0.00000000e+00
5.00000000e-03	2.61747959e+02	2.00000000e+02	2.05989849e+03	2.41335862e+02	5.76894007e+05	6.25161179e+05	1.22707086e-05	3.36382796e-02	1.95530065e+03	1.86504931e+03	2.24947434e+02	0.00000000e+00	0.00000000e+00	0.00000000e+00
5.00000000e-03	2.69503061e+02	2.00000000e+02	2.08690338e+03	2.44835056e+02	5.91443536e+05	6.40410547e+05	1.24437366e-05	3.45139667e-02	1.97739295e+03	1.88714204e+03	2.26511214e+02	0.00000000e+00	0.00000000e+00	0.00000000e+00
5.00000000e-03	2.77258163e+02	2.00000000e+02	2.11383621e+03	2.48334245e+02	6.06163105e+05	6.55829955e+05	1.26165485e-05	3.53944175e-02	1.99915276e+03	1.90890225e+03	2.28064854e+02	0.00000000e+00	0.00000000e+00	0.00000000e+00
5.00000000e-03	2.85013265e+02	2.00000000e+02	2.14069437e+03	2.51833430e+02	6.21050148e+05	6.71416834e+05	1.27891306e-05	3.62793899e-02	2.02058329e+03	1.93033316e+03	2.29608540e+02	0.00000000e+00	0.00000000e+00	0.00000000e+00
5.00000000e-03	2.92768367e+02	2.00000000e+02	2.16747539e+03	2.55332611e+02	6.36102124e+05	6.87168646e+05	1.29614696e-05	3.71686478e-02	2.04168793e+03	1.95143816e+03	2.31142450e+02	0.00000000e+00	0.00000000e+00	0.00000000e+00
5.00000000e-03	3.00523469e+02	2.00000000e+02	2.19417696e+03	2.58831787e+02	6.51316519e+05	7.03082877e+05	1.31335525e-05	3.80619611e-02	2.06247025e+03	1.97222082e+03	2.32666761e+02	0.00000000e+00	0.00000000e+00	0.00000000e+00
5.00000000e-03	3.08278571e+02	2.00000000e+02	2.22079691e+03	2.62330960e+02	6.66690848e+05	7.19157040e+05	1.33053670e-05	3.89591058e-02	2.08293396e+03	1.99268486e+03	2.34181640e+02	0.00000000e+00	0.00000000e+00	0.00000000e+00
5.00000000e-03	3.16033673e+02	2.00000000e+02	2.24733322e+03	2.65830130e+02	6.82222654e+05	7.35388680e+05	1.34769011e-05	3.98598636e-02	2.10308290e+03	2.01283410e+03	2.35687253e+02	0.00000000e+00	0.00000000e+00	0.00000000e+00
5.00000000e-03	3.23788776e+02	2.00000000e+02	2.27378397e+03	2.69329296e+02	6.97909512e+05	7.51775371e+05	1.36481430e-05	4.07640221e-02	2.12292104e+03	2.03267253e+03	2.37183761e+02	0.00000000e+00	0.00000000e+00	0.00000000e+00
5.00000000e-03	3.31543878e+02	2.00000000e+02	2.30014738e+03	2.72828459e+02	7.13749027e+05	7.68314719e+05	1.38190814e-05	4.16713745e-02	2.14245243e+03	2.05220419e+03	2.38671318e+02	0.00000000e+00	0.00000000e+00	0.00000000e+00
5.00000000e-03	3.39298980e+02	2.00000000e+02	2.32642181e+03	2.76327619e+02	7.29738836e+05	7.85004360e+05	1.39897056e-05	4.25817198e-02	2.16168121e+03	2.07143324e+03	2.40150077e+02	0.00000000e+00	0.00000000e+00	0.00000000e+00
5.00000000e-03	3.47054082e+02	2.00000000e+02	2.35260571e+03	2.79826777e+02	7.45876608e+05	8.01841963e+05	1.41600047e-05	4.34948625e-02	2.18061161e+03	2.09036388e+03	2.41620185e+02	0.00000000e+00	0.00000000e+00	0.00000000e+00
5.00000000e-03	3.54809184e+02	2.00000000e+02	2.37869765e+03	2.83325932e+02	7.62160046e+05	8.18825232e+05	1.43299687e-05	4.44106127e-02	2.19924790e+03	2.10900041e+03	2.43081785e+02	0.00000000e+00	0.00000000e+00	0.00000000e+00
5.00000000e-03	3.62564286e+02	2.00000000e+02	2.40469629e+03	2.86825085e+02	7.78586886e+05	8.35951903e+05	1.44995876e-05	4.53287857e-02	2.21759443e+03	2.12734717e+03	2.44535018e+02	0.00000000e+00	0.00000000e+00	0.00000000e+00
5.00000000e-03	3.70319388e+02	2.00000000e+02	2.43060043e+03	2.90324235e+02	7.95154897e+05	8.53219744e+05	1.46688518e-05	4.62492024e-02	2.23565557e+03	2.14540853e+03	2.45980019e+02	0.00000000e+00	0.00000000e+00	0.00000000e+00
5.00000000e-03	3.78074490e+02	2.00000000e+02	2.45640892e+03	2.93823383e+02	8.11861883e+05	8.70626560e+05	1.48377519e-05	4.71716889e-02	2.25343574e+03	2.16318890e+03	2.47416921e+02	0.00000000e+00	0.00000000e+00	0.00000000e+00
5.00000000e-03	3.85829592e+02	2.00000000e+02	2.48212074e+03	2.97322529e+02	8.28705683e+05	8.88170189e+05	1.50062791e-05	4.80960766e-02	2.27093938e+03	2.18069274e+03	2.48845853e+02	0.00000000e+00	0.00000000e+00	0.00000000e+00
5.00000000e-03	3.93584694e+02	2.00000000e+02	2.50773493e+03	3.00821673e+02	8.45684169e+05	9.05848504e+05	1.51744245e-05	4.90222018e-02	2.28817096e+03	2.19792450e+03	2.50266940e+02	0.00000000e+00	0.00000000e+00	0.00000000e+00
5.00000000e-03	4.01339796e+02	2.00000000e+02	2.53325063e+03	3.04320816e+02	8.62795249e+05	9.23659412e+05	1.53421798e-05	4.99499062e-02	2.30513494e+03	2.21488866e+03	2.51680306e+02	0.00000000e+00	0.00000000e+00	0.00000000e+00
5.00000000e-03	4.09094898e+02	2.00000000e+02	2.55866707e+03	3.07819956e+02	8.80036864e+05	9.41600856e+05	1.55095368e-05	5.08790364e-02	2.32183581e+03	2.23158970e+03	2.53086069e+02	0.00000000e+00	0.00000000e+00	0.00000000e+00
5.00000000e-03	4.16850000e+02	2.00000000e+02	2.58398353e+03	3.11319095e+02	8.97406992e+05	9.59670811e+05	1.56764877e-05	5.18094438e-02	2.33827806e+03	2.24803212e+03	2.54484347e+02	0.00000000e+00	0.00000000e+00	0.00000000e+00
6.16650874e-03	3.68500000e+01	1.62166315e+02	1.24485660e+03	1.72477334e+02	2.40636205e+05	2.68606219e+05	7.24150538e-06	1.16395345e-02	1.17324541e+03	1.08293348e+03	1.74063780e+02	0.00000000e+00	0.00000000e+00	0.00000000e+00
6.16650874e-03	4.46051020e+01	1.62166315e+02	1.27198927e+03	1.76793804e+02	2.49152595e+05	2.77822594e+05	7.41201336e-06	1.22418368e-02	1.20369450e+03	1.11338812e+03	1.76043222e+02	0.00000000e+00	0.00000000e+00	0.00000000e+00
6.16650874e-03	5.23602041e+01	1.62166315e+02	1.29920116e+03	1.81110189e+02	2.57904876e+05	2.87274848e+05	7.58301292e-06	1.28588923e-02	1.23406451e+03	1.14376310e+03	1.78002113e+02	0.00000000e+00	0.00000000e+00	0.00000000e+00
6.16650874e-03	6.01153061e+01	1.62166315e+02	1.32648627e+03	1.85426496e+02	2.66892302e+05	2.96962234e+05	7.75446348e-06	1.34902512e-02	1.26432225e+03	1.17402530e+03	1.79941190e+02	0.00000000e+00	0.00000000e+00	0.00000000e+00
6.16650874e-03	6.78704082e+01	1.62166315e+02	1.35383828e+03	1.89742734e+02	2.76113878e+05	3.06883758e+05	7.92632635e-06	1.41354721e-02	1.29443723e+03	1.20414430e+03	1.81861131e+02	0.00000000e+00	0.00000000e+00	0.00000000e+00
6.16650874e-03	7.56255102e+01	1.62166315e+02	1.38125064e+03	1.94058911e+02	2.85568384e+05	3.17038202e+05	8.09856456e-06	1.47941215e-02	1.32438166e+03	1.23409237e+03	1.83762560e+02	0.00000000e+00	0.00000000e+00	0.00000000e+00
6.16650874e-03	8.33806122e+01	1.62166315e+02	1.40871667e+03	1.98375031e+02	2.95254395e+05	3.27424143e+05	8.27114276e-06	1.54657740e-02	1.35413036e+03	1.26384436e+03	1.85646056e+02	0.00000000e+00	0.00000000e+00	0.00000000e+00
6.16650874e-03	9.11357143e+01	1.62166315e+02	1.43622959e+03	2.02691102e+02	3.05170302e+05	3.38039971e+05	8.44402709e-06	1.61500121e-02	1.38366066e+03	1.29337764e+03	1.87512155e+02	0.00000000e+00	0.00000000e+00	0.00000000e+00
6.16650874e-03	9.88908163e+01	1.62166315e+02	1.46378259e+03	2.07007126e+02	3.15314329e+05	3.48883911e+05	8.61718512e-06	1.68464263e-02	1.41295229e+03	1.32267199e+03	1.89361359e+02	0.00000000e+00	0.00000000e+00	0.00000000e+00
6.16650874e-03	1.06645918e+02	1.62166315e+02	1.49136890e+03	2.11323110e+02	3.25684550e+05	3.59954040e+05	8.79058573e-06	1.75546147e-02	1.44198724e+03	1.35170941e+03	1.91194139e+02	0.00000000e+00	0.00000000e+00	0.00000000e+00
6.16650874e-03	1.14401020e+02	1.62166315e+02	1.51898183e+03	2.15639055e+02	3.36278912e+05	3.71248303e+05	8.96419904e-06	1.82741833e-02	1.47074963e+03	1.38047406e+03	1.93010936e+02	0.00000000e+00	0.00000000e+00	0.00000000e+00
6.16650874e-03	1.22156122e+02	1.62166315e+02	1.54661476e+03	2.19954967e+02	3.47095244e+05	3.82764530e+05	9.13799634e-06	1.90047457e-02	1.49922554e+03	1.40895205e+03	1.94812165e+02	0.00000000e+00	0.00000000e+00	0.00000000e+00
6.16650874e-03	1.29911224e+02	1.62166315e+02	1.57426124e+03	2.24270847e+02	3.58131274e+05	3.94500451e+05	9.31195005e-06	1.97459231e-02	1.52740292e+03	1.43713132e+03	1.96598221e+02	0.00000000e+00	0.00000000e+00	0.00000000e+00
6.16650874e-03	1.37666327e+02	1.62166315e+02	1.60191496e+03	2.28586699e+02	3.69384645e+05	4.06453707e+05	9.48603360e-06	2.04973442e-02	1.55527135e+03	1.46500150e+03	1.98369478e+02	0.00000000e+00	0.00000000e+00	0.00000000e+00
6.16650874e-03	1.45421429e+02	1.62166315e+02	1.62956977e+03	2.32902525e+02	3.80852924e+05	4.18621868e+05	9.66022144e-06	2.12586451e-02	1.58282200e+03	1.49255376e+03	2.00126290e+02	0.00000000e+00	0.00000000e+00	0.00000000e+00
6.16650874e-03	1.53176531e+02	1.62166315e+02	1.65721973e+03	2.37218326e+02	3.92533617e+05	4.31002439e+05	9.83448893e-06	2.20294693e-02	1.61004744e+03	1.51978068e+03	2.01868997e+02	0.00000000e+00	0.00000000e+00	0.00000000e+00
6.16650874e-03	1.60931633e+02	1.62166315e+02	1.68485909e+03	2.41534106e+02	4.04424176e+05	4.43592872e+05	1.00088124e-05	2.28094676e-02	1.63694150e+03	1.54667612e+03	2.03597922e+02	0.00000000e+00	0.00000000e+00	0.00000000e+00
6.16650874e-03	1.68686735e+02	1.62166315e+02	1.71248232e+03	2.45849866e+02	4.16522009e+05	4.56390576e+05	1.01831688e-05	2.35982982e-02	1.66349921e+03	1.57323509e+03	2.05313376e+02	0.00000000e+00	0.00000000e+00	0.00000000e+00
6.16650874e-03	1.76441837e+02	1.62166315e+02	1.74008408e+03	2.50165607e+02	4.28824493e+05	4.69392928e+05	1.03575363e-05	2.43956262e-02	1.68971663e+03	1.59945368e+03	2.07015655e+02	0.00000000e+00	0.00000000e+00	0.00000000e+00
6.16650874e-03	1.84196939e+02	1.62166315e+02	1.76765926e+03	2.54481331e+02	4.41328975e+05	4.82597274e+05	1.05318935e-05	2.52011239e-02	1.71559076e+03	1.62532891e+03	2.08705046e+02	0.00000000e+00	0.00000000e+00	0.00000000e+00
6.16650874e-03	1.91952041e+02	1.62166315e+02	1.79520296e+03	2.58797039e+02	4.54032783e+05	4.96000945e+05	1.07062198e-05	2.60144705e-02	1.74111948e+03	1.65085864e+03	2.10381823e+02	0.00000000e+00	0.00000000e+00	0.00000000e+00
6.16650874e-03	1.99707143e+02	1.62166315e+02	1.82271050e+03	2.63112732e+02	4.66933232e+05	5.09601255e+05	1.08804954e-05	2.68353524e-02	1.76630142e+03	1.67604153e+03	2.12046252e+02	0.00000000e+00	0.00000000e+00	0.00000000e+00
6.16650874e-03	2.07462245e+02	1.62166315e+02	1.85017741e+03	2.67428412e+02	4.80027630e+05	5.23395511e+05	1.10547011e-05	2.76634627e-02	1.79113590e+03	1.70087689e+03	2.13698587e+02	0.00000000e+00	0.00000000e+00	0.00000000e+00
6.16650874e-03	2.15217347e+02	1.62166315e+02	1.87759941e+03	2.71744079e+02	4.93313282e+05	5.37381018e+05	1.12288183e-05	2.84985012e-02	1.81562287e+03	1.72536468e+03	2.15339075e+02	0.00000000e+00	0.00000000e+00	0.00000000e+00
6.16650874e-03	2.22972449e+02	1.62166315e+02	1.90497246e+03	2.76059735e+02	5.06787491e+05	5.51555081e+05	1.14028293e-05	2.93401746e-02	1.83976280e+03	1.74950538e+03	2.16967954e+02	0.00000000e+00	0.00000000e+00	0.00000000e+00
6.16650874e-03	2.30727551e+02	1.62166315e+02	1.93229269e+03	2.80375379e+02	5.20447572e+05	5.65915014e+05	1.15767167e-05	3.01881962e-02	1.86355668e+03	1.77329998e+03	2.18585454e+02	0.00000000e+00	0.00000000e+00	0.00000000e+00
6.16650874e-03	2.38482653e+02	1.62166315e+02	1.95955644e+03	2.84691014e+02	5.34290845e+05	5.80458138e+05	1.17504636e-05	3.10422859e-02	1.88700592e+03	1.79674990e+03	2.20191799e+02	0.00000000e+00	0.00000000e+00	0.00000000e+00
6.16650874e-03	2.46237755e+02	1.62166315e+02	1.98676025e+03	2.89006639e+02	5.48314643e+05	5.95181785e+05	1.19240541e-05	3.19021700e-02	1.91011234e+03	1.81985695e+03	2.21787204e+02	0.00000000e+00	0.00000000e+00	0.00000000e+00
6.16650874e-03	2.53992857e+02	1.62166315e+02	2.01390081e+03	2.93322255e+02	5.62516317e+05	6.10083306e+05	1.20974723e-05	3.27675814e-02	1.93287809e+03	1.84262330e+03	2.23371878e+02	0.00000000e+00	0.00000000e+00	0.00000000e+00
6.16650874e-03	2.61747959e+02	1.62166315e+02	2.04097502e+03	2.97637863e+02	5.76893232e+05	6.25160068e+05	1.22707033e-05	3.36382593e-02	1.95530564e+03	1.86505141e+03	2.24946024e+02	0.00000000e+00	0.00000000e+00	0.00000000e+00
6.16650874e-03	2.69503061e+02	1.62166315e+02	2.06797995e+03	3.01953463e+02	5.91442778e+05	6.40409458e+05	1.24437322e-05	3.45139491e-02	1.97739773e+03	1.88714403e+03	2.26509838e+02	0.00000000e+00	0.00000000e+00	0.00000000e+00
6.16650874e-03	2.77258163e+02	1.62166315e+02	2.09491280e+03	3.06269056e+02	6.06162362e+05	6.55828886e+05	1.26165450e-05	3.53944027e-02	1.99915735e+03	1.90890414e+03	2.28063512e+02	0.00000000e+00	0.00000000e+00	0.00000000e+00
6.16650874e-03	2.85013265e+02	1.62166315e+02	2.12177099e+03	3.10584642e+02	6.21049419e+05	6.71415786e+05	1.27891278e-05	3.62793777e-02	2.02058770e+03	1.93033496e+03	2.29607229e+02	0.00000000e+00	0.00000000e+00	0.00000000e+00
6.16650874e-03	2.92768367e+02	1.62166315e+02	2.14855203e+03	3.14900222e+02	6.36101409e+05	6.87167617e+05	1.29614676e-05	3.71686383e-02	2.04169217e+03	1.95143988e+03	2.31141171e+02	0.00000000e+00	0.00000000e+00	0.00000000e+00
6.16650874e-03	3.00523469e+02	1.62166315e+02	2.17525363e+03	3.19215797e+02	6.51315817e+05	7.03081866e+05	1.31335513e-05	3.80619543e-02	2.06247433e+03	1.97222245e+03	2.32665510e+02	0.00000000e+00	0.00000000e+00	0.00000000e+00
6.16650874e-03	3.08278571e+02	1.62166315e+02	2.20187360e+03	3.23531365e+02	6.66690158e+05	7.19156047e+05	1.33053665e-05	3.89591017e-02	2.08293789e+03	1.99268641e+03	2.34180418e+02	0.00000000e+00	0.00000000e+00	0.00000000e+00
6.16650874e-03	3.16033673e+02	1.62166315e+02	2.22840993e+03	3.27846928e+02	6.82221976e+05	7.35387704e+05	1.34769012e-05	3.98598622e-02	2.10308669e+03	2.01283559e+03	2.35686059e+02	0.00000000e+00	0.00000000e+00	0.00000000e+00
6.16650874e-03	3.23788776e+02	1.62166315e+02	2.25486069e+03	3.32162487e+02	6.97908845e+05	7.51774411e+05	1.36481438e-05	4.07640234e-02	2.12292469e+03	2.03267394e+03	2.37182593e+02	0.00000000e+00	0.00000000e+00	0.00000000e+00
6.16650874e-03	3.31543878e+02	1.62166315e+02	2.28122413e+03	3.36478040e+02	7.13748370e+05	7.68313774e+05	1.38190829e-05	4.16713786e-02	2.14245595e+03	2.05220554e+03	2.38670177e+02	0.00000000e+00	0.00000000e+00	0.00000000e+00
6.16650874e-03	3.39298980e+02	1.62166315e+02	2.30749858e+03	3.40793590e+02	7.29738189e+05	7.85003430e+05	1.39897077e-05	4.25817266e-02	2.16168461e+03	2.07143453e+03	2.40148960e+02	0.00000000e+00	0.00000000e+00	0.00000000e+00
6.16650874e-03	3.47054082e+02	1.62166315e+02	2.33368249e+03	3.45109135e+02	7.45875971e+05	8.01841048e+05	1.41600074e-05	4.34948721e-02	2.18061489e+03	2.09036512e+03	2.41619093e+02	0.00000000e+00	0.00000000e+00	0.00000000e+00
6.16650874e-03	3.54809184e+02	1.62166315e+02	2.35977444e+03	3.49424676e+02	7.62159419e+05	8.18824331e+05	1.43299720e-05	4.44106249e-02	2.19925108e+03	2.10900160e+03	2.43080716e+02	0.00000000e+00	0.00000000e+00	0.00000000e+00
6.16650874e-03	3.62564286e+02	1.62166315e+02	2.38577310e+03	3.53740214e+02	7.78586267e+05	8.35951014e+05	1.44995915e-05	4.53288006e-02	2.21759751e+03	2.12734830e+03	2.44533972e+02	0.00000000e+00	0.00000000e+00	0.00000000e+00
6.16650874e-03	3.70319388e+02	1.62166315e+02	2.41167725e+03	3.58055748e+02	7.95154287e+05	8.53218868e+05	1.46688562e-05	4.62492201e-02	2.23565855e+03	2.14540961e+03	2.45978995e+02	0.00000000e+00	0.00000000e+00	0.00000000e+00
6.16650874e-03	3.78074490e+02	1.62166315e+02	2.43748576e+03	3.62371279e+02	8.11861282e+05	8.70625697e+05	1.48377569e-05	4.71717093e-02	2.25343863e+03	2.16318994e+03	2.47415918e+02	0.00000000e+00	0.00000000e+00	0.00000000e+00
6.16650874e-03	3.85829592e+02	1.62166315e+02	2.46319758e+03	3.66686806e+02	8.28705090e+05	8.88169338e+05	1.50062845e-05	4.80960996e-02	2.27094218e+03	2.18069373e+03	2.48844871e+02	0.00000000e+00	0.00000000e+00	0.00000000e+00
6.16650874e-03	3.93584694e+02	1.62166315e+02	2.48881178e+03	3.71002331e+02	8.45683583e+05	9.05847664e+05	1.51744305e-05	4.90222276e-02	2.28817367e+03	2.19792545e+03	2.50265979e+02	0.00000000e+00	0.00000000e+00	0.00000000e+00
6.16650874e-03	4.01339796e+02	1.62166315e+02	2.51432750e+03	3.75317853e+02	8.62794670e+05	9.23658584e+05	1.53421863e-05	4.99499347e-02	2.30513757e+03	2.21488957e+03	2.51679364e+02	0.00000000e+00	0.00000000e+00	0.00000000e+00
6.16650874e-03	4.09094898e+02	1.62166315e+02	2.53974395e+03	3.79633372e+02	8.80036293e+05	9.41600038e+05	1.55095437e-05	5.08790676e-02	2.32183837e+03	2.23159058e+03	2.53085147e+02	0.00000000e+00	0.00000000e+00	0.00000000e+00
6.16650874e-03	4.16850000e+02	1.62166315e+02	2.56506042e+03	3.83948889e+02	8.97406427e+05	9.59670004e+05	1.56764950e-05	5.18094777e-02	2.33828055e+03	2.24803296e+03	2.54483443e+02	0.00000000e+00	0.00000000e+00	0.00000000e+00
7.60516600e-03	3.68500000e+01	1.31489569e+02	1.22592849e+03	2.12709406e+02	2.40633567e+05	2.68602635e+05	7.24142306e-06	1.16394126e-02	1.17328125e+03	1.08295229e+03	1.74059042e+02	0.00000000e+00	0.00000000e+00	0.00000000e+00
7.60516600e-03	4.46051020e+01	1.31489569e+02	1.25306161e+03	2.18033225e+02	2.49150095e+05	2.77819190e+05	7.41193703e-06	1.22417183e-02	1.20372742e+03	1.11340530e+03	1.76038713e+02	0.00000000e+00	0.00000000e+00	0.00000000e+00
7.60516600e-03	5.23602041e+01	1.31489569e+02	1.28027390e+03	2.23356913e+02	2.57902504e+05	2.87271609e+05	7.58294203e-06	1.28587771e-02	1.23409483e+03	1.14377884e+03	1.77997816e+02	0.00000000e+00	0.00000000e+00	0.00000000e+00
7.60516600e-03	6.01153061e+01	1.31489569e+02	1.30755936e+03	2.28680485e+02	2.66890047e+05	2.96959146e+05	7.75439758e-06	1.34901394e-02	1.26435023e+03	1.17403974e+03	1.79937088e+02	0.00000000e+00	0.00000000e+00	0.00000000e+00
7.60516600e-03	6.78704082e+01	1.31489569e+02	1.33491169e+03	2.34003951e+02	2.76111730e+05	3.06880809e+05	7.92626503e-06	1.41353636e-02	1.29446311e+03	1.20415758e+03	1.81857209e+02	0.00000000e+00	0.00000000e+00	0.00000000e+00
7.60516600e-03	7.56255102e+01	1.31489569e+02	1.36232434e+03	2.39327323e+02	2.85566335e+05	3.17035382e+05	8.09850745e-06	1.47940163e-02	1.32440565e+03	1.23410460e+03	1.83758805e+02	0.00000000e+00	0.00000000e+00	0.00000000e+00
7.60516600e-03	8.33806122e+01	1.31489569e+02	1.38979063e+03	2.44650610e+02	2.95252438e+05	3.27421441e+05	8.27108955e-06	1.54656722e-02	1.35415264e+03	1.26385565e+03	1.85642456e+02	0.00000000e+00	0.00000000e+00	0.00000000e+00
7.60516600e-03	9.11357143e+01	1.31489569e+02	1.41730377e+03	2.49973821e+02	3.05168429e+05	3.38037379e+05	8.44397750e-06	1.61499136e-02	1.38368139e+03	1.29338808e+03	1.87508700e+02	0.00000000e+00	0.00000000e+00	0.00000000e+00
7.60516600e-03	9.88908163e+01	1.31489569e+02	1.44485699e+03	2.55296962e+02	3.15312533e+05	3.48881421e+05	8.61713889e-06	1.68463312e-02	1.41297161e+03	1.32268165e+03	1.89358039e+02	0.00000000e+00	0.00000000e+00	0.00000000e+00
7.60516600e-03	1.06645918e+02	1.31489569e+02	1.47244349e+03	2.60620041e+02	3.25682827e+05	3.59951644e+05	8.79054263e-06	1.75545229e-02	1.44200528e+03	1.35171838e+03	1.91190945e+02	0.00000000e+00	0.00000000e+00	0.00000000e+00
7.60516600e-03	1.14401020e+02	1.31489569e+02	1.50005659e+03	2.65943062e+02	3.36277256e+05	3.71245995e+05	8.96415888e-06	1.82740949e-02	1.47076651e+03	1.38048239e+03	1.93007860e+02	0.00000000e+00	0.00000000e+00	0.00000000e+00
7.60516600e-03	1.22156122e+02	1.31489569e+02	1.52768969e+03	2.71266031e+02	3.47093650e+05	3.82762303e+05	9.13795893e-06	1.90046606e-02	1.49924136e+03	1.40895980e+03	1.94809200e+02	0.00000000e+00	0.00000000e+00	0.00000000e+00
7.60516600e-03	1.29911224e+02	1.31489569e+02	1.55533631e+03	2.76588953e+02	3.58129738e+05	3.94498300e+05	9.31191523e-06	1.97458413e-02	1.52741776e+03	1.43713854e+03	1.96595360e+02	0.00000000e+00	0.00000000e+00	0.00000000e+00
7.60516600e-03	1.37666327e+02	1.31489569e+02	1.58299016e+03	2.81911831e+02	3.69383163e+05	4.06451628e+05	9.48600121e-06	2.04972657e-02	1.55528530e+03	1.46500824e+03	1.98366714e+02	0.00000000e+00	0.00000000e+00	0.00000000e+00
7.60516600e-03	1.45421429e+02	1.31489569e+02	1.61064509e+03	2.87234670e+02	3.80851493e+05	4.18619856e+05	9.66019135e-06	2.12585699e-02	1.58283514e+03	1.49256006e+03	2.00123618e+02	0.00000000e+00	0.00000000e+00	0.00000000e+00
7.60516600e-03	1.53176531e+02	1.31489569e+02	1.63829516e+03	2.92557472e+02	3.92532233e+05	4.31000489e+05	9.83446101e-06	2.20293975e-02	1.61005982e+03	1.51978657e+03	2.01866412e+02	0.00000000e+00	0.00000000e+00	0.00000000e+00
7.60516600e-03	1.60931633e+02	1.31489569e+02	1.66593463e+03	2.97880241e+02	4.04422836e+05	4.43590980e+05	1.00087865e-05	2.28093992e-02	1.63695319e+03	1.54668163e+03	2.03595419e+02	0.00000000e+00	0.00000000e+00	0.00000000e+00
7.60516600e-03	1.68686735e+02	1.31489569e+02	1.69355795e+03	3.03202979e+02	4.16520711e+05	4.56388740e+05	1.01831449e-05	2.35982331e-02	1.66351026e+03	1.57324026e+03	2.05310950e+02	0.00000000e+00	0.00000000e+00	0.00000000e+00
7.60516600e-03	1.76441837e+02	1.31489569e+02	1.72115980e+03	3.08525689e+02	4.28823233e+05	4.69391143e+05	1.03575142e-05	2.43955644e-02	1.68972708e+03	1.59945853e+03	2.07013304e+02	0.00000000e+00	0.00000000e+00	0.00000000e+00
7.60516600e-03	1.84196939e+02	1.31489569e+02	1.74873506e+03	3.13848373e+02	4.41327752e+05	4.82595539e+05	1.05318732e-05	2.52010654e-02	1.71560067e+03	1.62533347e+03	2.08702764e+02	0.00000000e+00	0.00000000e+00	0.00000000e+00
7.60516600e-03	1.91952041e+02	1.31489569e+02	1.77627884e+03	3.19171033e+02	4.54031594e+05	4.95999256e+05	1.07062011e-05	2.60144155e-02	1.74112888e+03	1.65086293e+03	2.10379608e+02	0.00000000e+00	0.00000000e+00	0.00000000e+00
7.60516600e-03	1.99707143e+02	1.31489569e+02	1.80378645e+03	3.24493670e+02	4.66932076e+05	5.09599609e+05	1.08804783e-05	2.68353007e-02	1.76631035e+03	1.67604557e+03	2.12044100e+02	0.00000000e+00	0.00000000e+00	0.00000000e+00
7.60516600e-03	2.07462245e+02	1.31489569e+02	1.83125341e+03	3.29816287e+02	4.80026504e+05	5.23393906e+05	1.10546855e-05	2.76634143e-02	1.79114440e+03	1.70088070e+03	2.13696495e+02	0.00000000e+00	0.00000000e+00	0.00000000e+00
7.60516600e-03	2.15217347e+02	1.31489569e+02	1.85867548e+03	3.35138884e+02	4.93312184e+05	5.37379452e+05	1.12288043e-05	2.84984561e-02	1.81563095e+03	1.72536827e+03	2.15337040e+02	0.00000000e+00	0.00000000e+00	0.00000000e+00
7.60516600e-03	2.22972449e+02	1.31489569e+02	1.88604858e+03	3.40461464e+02	5.06786421e+05	5.51553552e+05	1.14028166e-05	2.93401329e-02	1.83977051e+03	1.74950877e+03	2.16965974e+02	0.00000000e+00	0.00000000e+00	0.00000000e+00
7.60516600e-03	2.30727551e+02	1.31489569e+02	1.91336886e+03	3.45784027e+02	5.20446528e+05	5.65913520e+05	1.15767053e-05	3.01881578e-02	1.86356403e+03	1.77330319e+03	2.18583527e+02	0.00000000e+00	0.00000000e+00	0.00000000e+00
7.60516600e-03	2.38482653e+02	1.31489569e+02	1.94063267e+03	3.51106575e+02	5.34289825e+05	5.80456677e+05	1.17504536e-05	3.10422509e-02	1.88701295e+03	1.79675293e+03	2.20189922e+02	0.00000000e+00	0.00000000e+00	0.00000000e+00
7.60516600e-03	2.46237755e+02	1.31489569e+02	1.96783651e+03	3.56429108e+02	5.48313646e+05	5.95180356e+05	1.19240453e-05	3.19021383e-02	1.91011906e+03	1.81985983e+03	2.21785375e+02	0.00000000e+00	0.00000000e+00	0.00000000e+00
7.60516600e-03	2.53992857e+02	1.31489569e+02	1.99497712e+03	3.61751628e+02	5.62515341e+05	6.10081907e+05	1.20974647e-05	3.27675531e-02	1.93288452e+03	1.84262602e+03	2.23370095e+02	0.00000000e+00	0.00000000e+00	0.00000000e+00
7.60516600e-03	2.61747959e+02	1.31489569e+02	2.02205137e+03	3.67074135e+02	5.76892277e+05	6.25158697e+05	1.22706967e-05	3.36382343e-02	1.95531180e+03	1.86505399e+03	2.24944285e+02	0.00000000e+00	0.00000000e+00	0.00000000e+00
7.60516600e-03	2.69503061e+02	1.31489569e+02	2.04905633e+03	3.72396631e+02	5.91441842e+05	6.40408114e+05	1.24437267e-05	3.45139275e-02	1.97740364e+03	1.88714648e+03	2.26508142e+02	0.00000000e+00	0.00000000e+00	0.00000000e+00
7.60516600e-03	2.77258163e+02	1.31489569e+02	2.07598922e+03	3.77719116e+02	6.06161445e+05	6.55827569e+05	1.26165405e-05	3.53943843e-02	1.99916302e+03	1.90890648e+03	2.28061856e+02	0.00000000e+00	0.00000000e+00	0.00000000e+00