TITLE="table"
VARIABLES="d" "T" "v" "s" "P" "u" "h" "eta" "lambda" "cp" "cv" "c" "alpha" "beta" "zeta"
ZONE I=100, J=100 DATAPACKING=POINT
5.00000000e-01	2.26850000e+02	2.00000000e+00	-8.96300583e+02	2.30823256e+01	-2.71361025e+05	-2.71314860e+05	5.38221343e-06	6.18534700e-03	8.95214573e+02	7.85283747e+02	1.48016229e+02	0.00000000e+00	0.00000000e+00	0.00000000e+00
5.00000000e-01	2.29880303e+02	2.00000000e+00	-8.74790558e+02	3.09591568e+01	-2.66448854e+05	-2.66386936e+05	5.44868212e-06	6.34479767e-03	9.03775950e+02	7.94987256e+02	1.49012303e+02	0.00000000e+00	0.00000000e+00	0.00000000e+00
5.00000000e-01	2.32910606e+02	2.00000000e+00	-8.53124273e+02	4.11566470e+01	-2.61435326e+05	-2.61353012e+05	5.51511691e-06	6.50738408e-03	9.12656946e+02	8.04901923e+02	1.49996838e+02	0.00000000e+00	0.00000000e+00	0.00000000e+00
5.00000000e-01	2.35940909e+02	2.00000000e+00	-8.31223457e+02	5.42490899e+01	-2.56301140e+05	-2.56192642e+05	5.58153022e-06	6.67307201e-03	9.21818284e+02	8.15003606e+02	1.50970515e+02	0.00000000e+00	0.00000000e+00	0.00000000e+00
5.00000000e-01	2.38971212e+02	2.00000000e+00	-8.08999792e+02	7.09248331e+01	-2.51023903e+05	-2.50882053e+05	5.64793293e-06	6.84182763e-03	9.31227223e+02	8.25271987e+02	1.51933937e+02	0.00000000e+00	0.00000000e+00	0.00000000e+00
5.00000000e-01	2.42001515e+02	2.00000000e+00	-7.86353974e+02	9.20028814e+01	-2.45577772e+05	-2.45393766e+05	5.71433456e-06	7.01361744e-03	9.40856217e+02	8.35689793e+02	1.52887646e+02	0.00000000e+00	0.00000000e+00	0.00000000e+00
5.00000000e-01	2.45031818e+02	2.00000000e+00	-7.63174812e+02	1.18450849e+02	-2.39933110e+05	-2.39696209e+05	5.78074344e-06	7.18840831e-03	9.50681877e+02	8.46242195e+02	1.53832126e+02	0.00000000e+00	0.00000000e+00	0.00000000e+00
5.00000000e-01	2.48062121e+02	2.00000000e+00	-7.39338352e+02	1.51404228e+02	-2.34056121e+05	-2.33753312e+05	5.84716683e-06	7.36616739e-03	9.60684154e+02	8.56916325e+02	1.54767817e+02	0.00000000e+00	0.00000000e+00	0.00000000e+00
5.00000000e-01	2.51092424e+02	2.00000000e+00	-7.14707045e+02	1.92186920e+02	-2.27908487e+05	-2.27524113e+05	5.91361106e-06	7.54686214e-03	9.70845701e+02	8.67700910e+02	1.55695117e+02	0.00000000e+00	0.00000000e+00	0.00000000e+00
5.00000000e-01	2.54122727e+02	2.00000000e+00	-6.89128982e+02	2.42332941e+02	-2.21447015e+05	-2.20962349e+05	5.98008162e-06	7.73046030e-03	9.81151374e+02	8.78585972e+02	1.56614389e+02	0.00000000e+00	0.00000000e+00	0.00000000e+00
5.00000000e-01	2.57153030e+02	2.00000000e+00	-6.62437189e+02	3.03609220e+02	-2.14623278e+05	-2.14016060e+05	6.04658324e-06	7.91692990e-03	9.91587831e+02	8.89562596e+02	1.57525969e+02	0.00000000e+00	0.00000000e+00	0.00000000e+00
5.00000000e-01	2.60183333e+02	2.00000000e+00	-6.34449014e+02	3.78039362e+02	-2.07383276e+05	-2.06627197e+05	6.11311999e-06	8.10623922e-03	1.00214322e+03	9.00622744e+02	1.58430161e+02	0.00000000e+00	0.00000000e+00	0.00000000e+00
5.00000000e-01	2.63213636e+02	2.00000000e+00	-6.04965592e+02	4.67928265e+02	-1.99667105e+05	-1.98731249e+05	6.17969536e-06	8.29835679e-03	1.01280691e+03	9.11759106e+02	1.59327249e+02	0.00000000e+00	0.00000000e+00	0.00000000e+00
5.00000000e-01	2.66243939e+02	2.00000000e+00	-5.73771422e+02	5.75887433e+02	-1.91408650e+05	-1.90256875e+05	6.24631229e-06	8.49325142e-03	1.02356933e+03	9.22964983e+02	1.60217496e+02	0.00000000e+00	0.00000000e+00	0.00000000e+00
5.00000000e-01	2.69274242e+02	2.00000000e+00	-5.40634041e+02	7.04860836e+02	-1.82535294e+05	-1.81125572e+05	6.31297325e-06	8.69089214e-03	1.03442175e+03	9.34234190e+02	1.61101145e+02	0.00000000e+00	0.00000000e+00	0.00000000e+00
5.00000000e-01	2.72304545e+02	2.00000000e+00	-5.05303814e+02	8.58151161e+02	-1.72967656e+05	-1.71251354e+05	6.37968032e-06	8.89124823e-03	1.04535619e+03	9.45560982e+02	1.61978423e+02	0.00000000e+00	0.00000000e+00	0.00000000e+00
5.00000000e-01	2.75334848e+02	2.00000000e+00	-4.67513835e+02	1.03944627e+03	-1.62619359e+05	-1.60540467e+05	6.44643516e-06	9.09428922e-03	1.05636531e+03	9.56939991e+02	1.62849542e+02	0.00000000e+00	0.00000000e+00	0.00000000e+00
5.00000000e-01	2.78365152e+02	2.00000000e+00	-4.26979953e+02	1.25284571e+03	-1.51396824e+05	-1.48891132e+05	6.51323912e-06	9.29998484e-03	1.06744231e+03	9.68366177e+02	1.63714701e+02	0.00000000e+00	0.00000000e+00	0.00000000e+00
5.00000000e-01	2.81395455e+02	2.00000000e+00	-3.83400908e+02	1.50288704e+03	-1.39199099e+05	-1.36193325e+05	6.58009324e-06	9.50830507e-03	1.07858085e+03	9.79834788e+02	1.64574084e+02	0.00000000e+00	0.00000000e+00	0.00000000e+00
5.00000000e-01	2.84425758e+02	2.00000000e+00	-3.36458587e+02	1.79457192e+03	-1.25917728e+05	-1.22328584e+05	6.64699829e-06	9.71922012e-03	1.08977503e+03	9.91341324e+02	1.65427868e+02	0.00000000e+00	0.00000000e+00	0.00000000e+00
5.00000000e-01	2.87456061e+02	2.00000000e+00	-2.85818390e+02	2.13339164e+03	-1.11436647e+05	-1.07169863e+05	6.71395481e-06	9.93270041e-03	1.10101929e+03	1.00288151e+03	1.66276216e+02	0.00000000e+00	0.00000000e+00	0.00000000e+00
5.00000000e-01	2.90486364e+02	2.00000000e+00	-2.31129715e+02	2.52535203e+03	-9.56321260e+04	-9.05814219e+04	6.78096310e-06	1.01487166e-02	1.11230842e+03	1.01445129e+03	1.67119284e+02	0.00000000e+00	0.00000000e+00	0.00000000e+00
5.00000000e-01	2.93516667e+02	2.00000000e+00	-1.72026534e+02	2.97699753e+03	-7.83727452e+04	-7.24187502e+04	6.84802329e-06	1.03672395e-02	1.12363749e+03	1.02604677e+03	1.67957217e+02	0.00000000e+00	0.00000000e+00	0.00000000e+00
5.00000000e-01	2.96546970e+02	2.00000000e+00	-1.08128072e+02	3.49543430e+03	-5.95194059e+04	-5.25285373e+04	6.91513533e-06	1.05882402e-02	1.13500184e+03	1.03766425e+03	1.68790155e+02	0.00000000e+00	0.00000000e+00	0.00000000e+00
5.00000000e-01	2.99577273e+02	2.00000000e+00	-3.90395806e+01	4.08835224e+03	-3.89253819e+04	-3.07486775e+04	6.98229901e-06	1.08116901e-02	1.14639705e+03	1.04930017e+03	1.69618228e+02	0.00000000e+00	0.00000000e+00	0.00000000e+00
5.00000000e-01	3.02607576e+02	2.00000000e+00	3.56468226e+01	4.76404574e+03	-1.64364056e+04	-6.90831416e+03	7.04951399e-06	1.10375606e-02	1.15781893e+03	1.06095115e+03	1.70441561e+02	0.00000000e+00	0.00000000e+00	0.00000000e+00
5.00000000e-01	3.05637879e+02	2.00000000e+00	1.16351228e+02	5.53143310e+03	8.10921192e+03	1.91720781e+04	7.11677981e-06	1.12658233e-02	1.16926348e+03	1.07261390e+03	1.71260272e+02	0.00000000e+00	0.00000000e+00	0.00000000e+00
5.00000000e-01	3.08668182e+02	2.00000000e+00	2.03504957e+02	6.40007449e+03	3.48804279e+04	4.76805769e+04	7.18409589e-06	1.14964504e-02	1.18072691e+03	1.08428530e+03	1.72074472e+02	0.00000000e+00	0.00000000e+00	0.00000000e+00
5.00000000e-01	3.11698485e+02	2.00000000e+00	2.97549532e+02	7.38018837e+03	6.40532841e+04	7.88136609e+04	7.25146155e-06	1.17294137e-02	1.19220557e+03	1.09596235e+03	1.72884268e+02	0.00000000e+00	0.00000000e+00	0.00000000e+00
5.00000000e-01	3.14728788e+02	2.00000000e+00	3.98935601e+02	8.48266632e+03	9.58106949e+04	1.12776028e+05	7.31887603e-06	1.19646858e-02	1.20369603e+03	1.10764215e+03	1.73689762e+02	0.00000000e+00	0.00000000e+00	0.00000000e+00
5.00000000e-01	3.17759091e+02	2.00000000e+00	5.08121839e+02	9.71908621e+03	1.30342209e+05	1.49780382e+05	7.38633849e-06	1.22022390e-02	1.21519497e+03	1.11932193e+03	1.74491050e+02	0.00000000e+00	0.00000000e+00	0.00000000e+00
5.00000000e-01	3.20789394e+02	2.00000000e+00	6.25573829e+02	1.11017237e+04	1.67843751e+05	1.90047198e+05	7.45384803e-06	1.24420462e-02	1.22669925e+03	1.13099903e+03	1.75288225e+02	0.00000000e+00	0.00000000e+00	0.00000000e+00
5.00000000e-01	3.23819697e+02	2.00000000e+00	7.51762922e+02	1.26435619e+04	2.08517336e+05	2.33804459e+05	7.52140368e-06	1.26840803e-02	1.23820584e+03	1.14267089e+03	1.76081375e+02	0.00000000e+00	0.00000000e+00	0.00000000e+00
5.00000000e-01	3.26850000e+02	2.00000000e+00	8.87165117e+02	1.43582994e+04	2.52570775e+05	2.81287374e+05	7.58900441e-06	1.29283143e-02	1.24971187e+03	1.15433504e+03	1.76870583e+02	0.00000000e+00	0.00000000e+00	0.00000000e+00
5.00000000e-01	3.29880303e+02	2.00000000e+00	9.16408355e+02	1.47366811e+04	2.62149159e+05	2.91622521e+05	7.65664915e-06	1.31747216e-02	1.26121459e+03	1.16598912e+03	1.77655930e+02	0.00000000e+00	0.00000000e+00	0.00000000e+00
5.00000000e-01	3.32910606e+02	2.00000000e+00	9.27123471e+02	1.48757002e+04	2.65700101e+05	2.95451502e+05	7.72433679e-06	1.34232758e-02	1.27271136e+03	1.17763087e+03	1.78437494e+02	0.00000000e+00	0.00000000e+00	0.00000000e+00
5.00000000e-01	3.35940909e+02	2.00000000e+00	9.37846919e+02	1.50146494e+04	2.69286301e+05	2.99315600e+05	7.79206617e-06	1.36739505e-02	1.28419966e+03	1.18925812e+03	1.79215349e+02	0.00000000e+00	0.00000000e+00	0.00000000e+00
5.00000000e-01	3.38971212e+02	2.00000000e+00	9.48578411e+02	1.51535315e+04	2.72907710e+05	3.03214773e+05	7.85983613e-06	1.39267197e-02	1.29567710e+03	1.20086878e+03	1.79989564e+02	0.00000000e+00	0.00000000e+00	0.00000000e+00
5.00000000e-01	3.42001515e+02	2.00000000e+00	9.59317646e+02	1.52923495e+04	2.76564275e+05	3.07148974e+05	7.92764545e-06	1.41815573e-02	1.30714138e+03	1.21246085e+03	1.80760209e+02	0.00000000e+00	0.00000000e+00	0.00000000e+00
5.00000000e-01	3.45031818e+02	2.00000000e+00	9.70064315e+02	1.54311058e+04	2.80255937e+05	3.11118148e+05	7.99549289e-06	1.44384379e-02	1.31859030e+03	1.22403241e+03	1.81527347e+02	0.00000000e+00	0.00000000e+00	0.00000000e+00
5.00000000e-01	3.48062121e+02	2.00000000e+00	9.80818102e+02	1.55698030e+04	2.83982630e+05	3.15122236e+05	8.06337721e-06	1.46973357e-02	1.33002176e+03	1.23558163e+03	1.82291043e+02	0.00000000e+00	0.00000000e+00	0.00000000e+00
5.00000000e-01	3.51092424e+02	2.00000000e+00	9.91578680e+02	1.57084434e+04	2.87744286e+05	3.19161173e+05	8.13129714e-06	1.49582256e-02	1.34143376e+03	1.24710675e+03	1.83051357e+02	0.00000000e+00	0.00000000e+00	0.00000000e+00
5.00000000e-01	3.54122727e+02	2.00000000e+00	1.00234572e+03	1.58470294e+04	2.91540827e+05	3.23234886e+05	8.19925139e-06	1.52210823e-02	1.35282440e+03	1.25860610e+03	1.83808345e+02	0.00000000e+00	0.00000000e+00	0.00000000e+00
5.00000000e-01	3.57153030e+02	2.00000000e+00	1.01311888e+03	1.59855631e+04	2.95372174e+05	3.27343300e+05	8.26723866e-06	1.54858809e-02	1.36419184e+03	1.27007806e+03	1.84562065e+02	0.00000000e+00	0.00000000e+00	0.00000000e+00
5.00000000e-01	3.60183333e+02	2.00000000e+00	1.02389783e+03	1.61240464e+04	2.99238241e+05	3.31486334e+05	8.33525766e-06	1.57525966e-02	1.37553436e+03	1.28152111e+03	1.85312570e+02	0.00000000e+00	0.00000000e+00	0.00000000e+00
5.00000000e-01	3.63213636e+02	2.00000000e+00	1.03468222e+03	1.62624815e+04	3.03138938e+05	3.35663901e+05	8.40330707e-06	1.60212049e-02	1.38685030e+03	1.29293377e+03	1.86059913e+02	0.00000000e+00	0.00000000e+00	0.00000000e+00
5.00000000e-01	3.66243939e+02	2.00000000e+00	1.04547169e+03	1.64008700e+04	3.07074171e+05	3.39875911e+05	8.47138558e-06	1.62916814e-02	1.39813807e+03	1.30431466e+03	1.86804143e+02	0.00000000e+00	0.00000000e+00	0.00000000e+00
5.00000000e-01	3.69274242e+02	2.00000000e+00	1.05626590e+03	1.65392139e+04	3.11043842e+05	3.44122269e+05	8.53949186e-06	1.65640018e-02	1.40939618e+03	1.31566243e+03	1.87545309e+02	0.00000000e+00	0.00000000e+00	0.00000000e+00
5.00000000e-01	3.72304545e+02	2.00000000e+00	1.06706450e+03	1.66775147e+04	3.15047848e+05	3.48402877e+05	8.60762459e-06	1.68381421e-02	1.42062320e+03	1.32697582e+03	1.88283457e+02	0.00000000e+00	0.00000000e+00	0.00000000e+00
5.00000000e-01	3.75334848e+02	2.00000000e+00	1.07786713e+03	1.68157741e+04	3.19086083e+05	3.52717632e+05	8.67578245e-06	1.71140785e-02	1.43181777e+03	1.33825363e+03	1.89018633e+02	0.00000000e+00	0.00000000e+00	0.00000000e+00
5.00000000e-01	3.78365152e+02	2.00000000e+00	1.08867343e+03	1.69539937e+04	3.23158439e+05	3.57066426e+05	8.74396413e-06	1.73917874e-02	1.44297858e+03	1.34949469e+03	1.89750881e+02	0.00000000e+00	0.00000000e+00	0.00000000e+00
5.00000000e-01	3.81395455e+02	2.00000000e+00	1.09948305e+03	1.70921748e+04	3.27264801e+05	3.61449150e+05	8.81216830e-06	1.76712451e-02	1.45410443e+03	1.36069793e+03	1.90480244e+02	0.00000000e+00	0.00000000e+00	0.00000000e+00
5.00000000e-01	3.84425758e+02	2.00000000e+00	1.11029563e+03	1.72303189e+04	3.31405054e+05	3.65865691e+05	8.88039364e-06	1.79524286e-02	1.46519415e+03	1.37186231e+03	1.91206761e+02	0.00000000e+00	0.00000000e+00	0.00000000e+00
5.00000000e-01	3.87456061e+02	2.00000000e+00	1.12111081e+03	1.73684274e+04	3.35579078e+05	3.70315932e+05	8.94863885e-06	1.82353145e-02	1.47624662e+03	1.38298683e+03	1.91930474e+02	0.00000000e+00	0.00000000e+00	0.00000000e+00
5.00000000e-01	3.90486364e+02	2.00000000e+00	1.13192825e+03	1.75065014e+04	3.39786751e+05	3.74799754e+05	9.01690261e-06	1.85198801e-02	1.48726081e+03	1.39407058e+03	1.92651420e+02	0.00000000e+00	0.00000000e+00	0.00000000e+00
5.00000000e-01	3.93516667e+02	2.00000000e+00	1.14274759e+03	1.76445424e+04	3.44027948e+05	3.79317033e+05	9.08518363e-06	1.88061024e-02	1.49823572e+03	1.40511267e+03	1.93369638e+02	0.00000000e+00	0.00000000e+00	0.00000000e+00
5.00000000e-01	3.96546970e+02	2.00000000e+00	1.15356848e+03	1.77825513e+04	3.48302542e+05	3.83867645e+05	9.15348061e-06	1.90939591e-02	1.50917042e+03	1.41611226e+03	1.94085164e+02	0.00000000e+00	0.00000000e+00	0.00000000e+00
5.00000000e-01	3.99577273e+02	2.00000000e+00	1.16439056e+03	1.79205293e+04	3.52610403e+05	3.88451462e+05	9.22179227e-06	1.93834275e-02	1.52006402e+03	1.42706857e+03	1.94798032e+02	0.00000000e+00	0.00000000e+00	0.00000000e+00
5.00000000e-01	4.02607576e+02	2.00000000e+00	1.17521349e+03	1.80584776e+04	3.56951398e+05	3.93068353e+05	9.29011732e-06	1.96744855e-02	1.53091568e+03	1.43798086e+03	1.95508278e+02	0.00000000e+00	0.00000000e+00	0.00000000e+00
5.00000000e-01	4.05637879e+02	2.00000000e+00	1.18603692e+03	1.81963971e+04	3.61325393e+05	3.97718187e+05	9.35845449e-06	1.99671111e-02	1.54172463e+03	1.44884842e+03	1.96215934e+02	0.00000000e+00	0.00000000e+00	0.00000000e+00
5.00000000e-01	4.08668182e+02	2.00000000e+00	1.19686051e+03	1.83342888e+04	3.65732252e+05	4.02400829e+05	9.42680252e-06	2.02612823e-02	1.55249011e+03	1.45967060e+03	1.96921034e+02	0.00000000e+00	0.00000000e+00	0.00000000e+00
5.00000000e-01	4.11698485e+02	2.00000000e+00	1.20768393e+03	1.84721537e+04	3.70171835e+05	4.07116143e+05	9.49516016e-06	2.05569775e-02	1.56321144e+03	1.47044677e+03	1.97623609e+02	0.00000000e+00	0.00000000e+00	0.00000000e+00
5.00000000e-01	4.14728788e+02	2.00000000e+00	1.21850682e+03	1.86099926e+04	3.74644003e+05	4.11863989e+05	9.56352616e-06	2.08541751e-02	1.57388794e+03	1.48117637e+03	1.98323690e+02	0.00000000e+00	0.00000000e+00	0.00000000e+00
5.00000000e-01	4.17759091e+02	2.00000000e+00	1.22932887e+03	1.87478065e+04	3.79148614e+05	4.16644227e+05	9.63189928e-06	2.11528538e-02	1.58451902e+03	1.49185884e+03	1.99021307e+02	0.00000000e+00	0.00000000e+00	0.00000000e+00
5.00000000e-01	4.20789394e+02	2.00000000e+00	1.24014973e+03	1.88855962e+04	3.83685524e+05	4.21456716e+05	9.70027830e-06	2.14529923e-02	1.59510408e+03	1.50249367e+03	1.99716489e+02	0.00000000e+00	0.00000000e+00	0.00000000e+00
5.00000000e-01	4.23819697e+02	2.00000000e+00	1.25096909e+03	1.90233624e+04	3.88254588e+05	4.26301313e+05	9.76866201e-06	2.17545696e-02	1.60564260e+03	1.51308040e+03	2.00409265e+02	0.00000000e+00	0.00000000e+00	0.00000000e+00
5.00000000e-01	4.26850000e+02	2.00000000e+00	1.26178662e+03	1.91611060e+04	3.92855659e+05	4.31177871e+05	9.83704920e-06	2.20575649e-02	1.61613406e+03	1.52361857e+03	2.01099663e+02	0.00000000e+00	0.00000000e+00	0.00000000e+00
5.00000000e-01	4.29880303e+02	2.00000000e+00	1.27260200e+03	1.92988276e+04	3.97488590e+05	4.36086246e+05	9.90543867e-06	2.23619576e-02	1.62657801e+03	1.53410779e+03	2.01787709e+02	0.00000000e+00	0.00000000e+00	0.00000000e+00
5.00000000e-01	4.32910606e+02	2.00000000e+00	1.28341492e+03	1.94365281e+04	4.02153232e+05	4.41026288e+05	9.97382924e-06	2.26677270e-02	1.63697400e+03	1.54454767e+03	2.02473431e+02	0.00000000e+00	0.00000000e+00	0.00000000e+00
5.00000000e-01	4.35940909e+02	2.00000000e+00	1.29422506e+03	1.95742080e+04	4.06849435e+05	4.45997851e+05	1.00422197e-05	2.29748529e-02	1.64732163e+03	1.55493785e+03	2.03156854e+02	0.00000000e+00	0.00000000e+00	0.00000000e+00
5.00000000e-01	4.38971212e+02	2.00000000e+00	1.30503211e+03	1.97118680e+04	4.11577048e+05	4.51000784e+05	1.01106090e-05	2.32833151e-02	1.65762052e+03	1.56527803e+03	2.03838004e+02	0.00000000e+00	0.00000000e+00	0.00000000e+00
5.00000000e-01	4.42001515e+02	2.00000000e+00	1.31583579e+03	1.98495088e+04	4.16335918e+05	4.56034935e+05	1.01789959e-05	2.35930935e-02	1.66787034e+03	1.57556789e+03	2.04516906e+02	0.00000000e+00	0.00000000e+00	0.00000000e+00
5.00000000e-01	4.45031818e+02	2.00000000e+00	1.32663578e+03	1.99871310e+04	4.21125893e+05	4.61100155e+05	1.02473793e-05	2.39041683e-02	1.67807076e+03	1.58580718e+03	2.05193583e+02	0.00000000e+00	0.00000000e+00	0.00000000e+00
5.00000000e-01	4.48062121e+02	2.00000000e+00	1.33743179e+03	2.01247351e+04	4.25946819e+05	4.66196289e+05	1.03157580e-05	2.42165199e-02	1.68822149e+03	1.59599564e+03	2.05868060e+02	0.00000000e+00	0.00000000e+00	0.00000000e+00
5.00000000e-01	4.51092424e+02	2.00000000e+00	1.34822354e+03	2.02623216e+04	4.30798542e+05	4.71323185e+05	1.03841309e-05	2.45301288e-02	1.69832227e+03	1.60613305e+03	2.06540360e+02	0.00000000e+00	0.00000000e+00	0.00000000e+00
5.00000000e-01	4.54122727e+02	2.00000000e+00	1.35901073e+03	2.03998912e+04	4.35680907e+05	4.76480689e+05	1.04524970e-05	2.48449755e-02	1.70837286e+03	1.61621921e+03	2.07210505e+02	0.00000000e+00	0.00000000e+00	0.00000000e+00
5.00000000e-01	4.57153030e+02	2.00000000e+00	1.36979310e+03	2.05374444e+04	4.40593758e+05	4.81668647e+05	1.05208550e-05	2.51610409e-02	1.71837304e+03	1.62625395e+03	2.07878518e+02	0.00000000e+00	0.00000000e+00	0.00000000e+00
5.00000000e-01	4.60183333e+02	2.00000000e+00	1.38057035e+03	2.06749816e+04	4.45536939e+05	4.86886903e+05	1.05892041e-05	2.54783060e-02	1.72832261e+03	1.63623710e+03	2.08544420e+02	0.00000000e+00	0.00000000e+00	0.00000000e+00
5.00000000e-01	4.63213636e+02	2.00000000e+00	1.39134222e+03	2.08125034e+04	4.50510294e+05	4.92135301e+05	1.06575430e-05	2.57967519e-02	1.73822141e+03	1.64616852e+03	2.09208234e+02	0.00000000e+00	0.00000000e+00	0.00000000e+00
5.00000000e-01	4.66243939e+02	2.00000000e+00	1.40210844e+03	2.09500101e+04	4.55513666e+05	4.97413686e+05	1.07258707e-05	2.61163599e-02	1.74806927e+03	1.65604811e+03	2.09869979e+02	0.00000000e+00	0.00000000e+00	0.00000000e+00
5.00000000e-01	4.69274242e+02	2.00000000e+00	1.41286875e+03	2.10875023e+04	4.60546897e+05	5.02721902e+05	1.07941862e-05	2.64371116e-02	1.75786607e+03	1.66587575e+03	2.10529676e+02	0.00000000e+00	0.00000000e+00	0.00000000e+00
5.00000000e-01	4.72304545e+02	2.00000000e+00	1.42362289e+03	2.12249804e+04	4.65609830e+05	5.08059791e+05	1.08624884e-05	2.67589884e-02	1.76761169e+03	1.67565137e+03	2.11187346e+02	0.00000000e+00	0.00000000e+00	0.00000000e+00
5.00000000e-01	4.75334848e+02	2.00000000e+00	1.43437060e+03	2.13624447e+04	4.70702307e+05	5.13427197e+05	1.09307763e-05	2.70819722e-02	1.77730604e+03	1.68537489e+03	2.11843008e+02	0.00000000e+00	0.00000000e+00	0.00000000e+00
5.00000000e-01	4.78365152e+02	2.00000000e+00	1.44511164e+03	2.14998958e+04	4.75824171e+05	5.18823962e+05	1.09990489e-05	2.74060449e-02	1.78694903e+03	1.69504627e+03	2.12496682e+02	0.00000000e+00	0.00000000e+00	0.00000000e+00
5.00000000e-01	4.81395455e+02	2.00000000e+00	1.45584577e+03	2.16373339e+04	4.80975262e+05	5.24249930e+05	1.10673051e-05	2.77311887e-02	1.79654060e+03	1.70466547e+03	2.13148386e+02	0.00000000e+00	0.00000000e+00	0.00000000e+00
5.00000000e-01	4.84425758e+02	2.00000000e+00	1.46657273e+03	2.17747595e+04	4.86155424e+05	5.29704943e+05	1.11355440e-05	2.80573857e-02	1.80608071e+03	1.71423247e+03	2.13798140e+02	0.00000000e+00	0.00000000e+00	0.00000000e+00
5.00000000e-01	4.87456061e+02	2.00000000e+00	1.47729229e+03	2.19121728e+04	4.91364497e+05	5.35188843e+05	1.12037646e-05	2.83846184e-02	1.81556932e+03	1.72374726e+03	2.14445961e+02	0.00000000e+00	0.00000000e+00	0.00000000e+00
5.00000000e-01	4.90486364e+02	2.00000000e+00	1.48800423e+03	2.20495744e+04	4.96602324e+05	5.40701473e+05	1.12719660e-05	2.87128694e-02	1.82500642e+03	1.73320986e+03	2.15091868e+02	0.00000000e+00	0.00000000e+00	0.00000000e+00
5.00000000e-01	4.93516667e+02	2.00000000e+00	1.49870831e+03	2.21869644e+04	5.01868747e+05	5.46242675e+05	1.13401471e-05	2.90421214e-02	1.83439200e+03	1.74262027e+03	2.15735878e+02	0.00000000e+00	0.00000000e+00	0.00000000e+00
5.00000000e-01	4.96546970e+02	2.00000000e+00	1.50940431e+03	2.23243432e+04	5.07163606e+05	5.51812293e+05	1.14083070e-05	2.93723573e-02	1.84372606e+03	1.75197853e+03	2.16378008e+02	0.00000000e+00	0.00000000e+00	0.00000000e+00
5.00000000e-01	4.99577273e+02	2.00000000e+00	1.52009202e+03	2.24617111e+04	5.12486746e+05	5.57410168e+05	1.14764447e-05	2.97035600e-02	1.85300865e+03	1.76128468e+03	2.17018277e+02	0.00000000e+00	0.00000000e+00	0.00000000e+00
5.00000000e-01	5.02607576e+02	2.00000000e+00	1.53077121e+03	2.25990685e+04	5.17838006e+05	5.63036143e+05	1.15445594e-05	3.00357129e-02	1.86223977e+03	1.77053878e+03	2.17656700e+02	0.00000000e+00	0.00000000e+00	0.00000000e+00
5.00000000e-01	5.05637879e+02	2.00000000e+00	1.54144168e+03	2.27364156e+04	5.23217231e+05	5.68690062e+05	1.16126501e-05	3.03687992e-02	1.87141949e+03	1.77974089e+03	2.18293294e+02	0.00000000e+00	0.00000000e+00	0.00000000e+00
5.00000000e-01	5.08668182e+02	2.00000000e+00	1.55210323e+03	2.28737526e+04	5.28624262e+05	5.74371768e+05	1.16807160e-05	3.07028024e-02	1.88054786e+03	1.78889109e+03	2.18928076e+02	0.00000000e+00	0.00000000e+00	0.00000000e+00
5.00000000e-01	5.11698485e+02	2.00000000e+00	1.56275564e+03	2.30110800e+04	5.34058943e+05	5.80081103e+05	1.17487560e-05	3.10377062e-02	1.88962494e+03	1.79798945e+03	2.19561060e+02	0.00000000e+00	0.00000000e+00	0.00000000e+00
5.00000000e-01	5.14728788e+02	2.00000000e+00	1.57339872e+03	2.31483979e+04	5.39521116e+05	5.85817912e+05	1.18167693e-05	3.13734943e-02	1.89865081e+03	1.80703609e+03	2.20192264e+02	0.00000000e+00	0.00000000e+00	0.00000000e+00
5.00000000e-01	5.17759091e+02	2.00000000e+00	1.58403228e+03	2.32857065e+04	5.45010625e+05	5.91582038e+05	1.18847551e-05	3.17101507e-02	1.90762555e+03	1.81603109e+03	2.20821702e+02	0.00000000e+00	0.00000000e+00	0.00000000e+00
5.00000000e-01	5.20789394e+02	2.00000000e+00	1.59465613e+03	2.34230062e+04	5.50527313e+05	5.97373325e+05	1.19527125e-05	3.20476596e-02	1.91654927e+03	1.82497457e+03	2.21449390e+02	0.00000000e+00	0.00000000e+00	0.00000000e+00
5.00000000e-01	5.23819697e+02	2.00000000e+00	1.60527008e+03	2.35602972e+04	5.56071025e+05	6.03191619e+05	1.20206405e-05	3.23860051e-02	1.92542206e+03	1.83386665e+03	2.22075342e+02	0.00000000e+00	0.00000000e+00	0.00000000e+00
5.00000000e-01	5.26850000e+02	2.00000000e+00	1.61587395e+03	2.36975797e+04	5.61641605e+05	6.09036764e+05	1.20885384e-05	3.27251716e-02	1.93424405e+03	1.84270746e+03	2.22699573e+02	0.00000000e+00	0.00000000e+00	0.00000000e+00
5.15361203e-01	2.26850000e+02	1.94038665e+00	-8.96435978e+02	2.30823256e+01	-2.71390363e+05	-2.71345575e+05	5.37989284e-06	6.18387123e-03	8.96857927e+02	7.86169561e+02	1.47910864e+02	0.00000000e+00	0.00000000e+00	0.00000000e+00
5.15361203e-01	2.29880303e+02	1.94038665e+00	-8.74966629e+02	3.09591568e+01	-2.66487484e+05	-2.66427411e+05	5.44646403e-06	6.34332324e-03	9.05285753e+02	7.95798123e+02	1.48910758e+02	0.00000000e+00	0.00000000e+00	0.00000000e+00
5.15361203e-01	2.32910606e+02	1.94038665e+00	-8.53351298e+02	4.11566470e+01	-2.61485749e+05	-2.61405889e+05	5.51299482e-06	6.50591203e-03	9.14050895e+02	8.05647986e+02	1.49898833e+02	0.00000000e+00	0.00000000e+00	0.00000000e+00
5.15361203e-01	2.35940909e+02	1.94038665e+00	-8.31513804e+02	5.42490899e+01	-2.56366411e+05	-2.56261147e+05	5.57949815e-06	6.67160327e-03	9.23111012e+02	8.15693252e+02	1.50875805e+02	0.00000000e+00	0.00000000e+00	0.00000000e+00
5.15361203e-01	2.38971212e+02	1.94038665e+00	-8.09368229e+02	7.09248331e+01	-2.51107721e+05	-2.50970099e+05	5.64598539e-06	6.84036303e-03	9.32430909e+02	8.25912190e+02	1.51842304e+02	0.00000000e+00	0.00000000e+00	0.00000000e+00
5.15361203e-01	2.42001515e+02	1.94038665e+00	-7.86818014e+02	9.20028814e+01	-2.45684586e+05	-2.45506065e+05	5.71246650e-06	7.01215773e-03	9.41981064e+02	8.36286385e+02	1.52798896e+02	0.00000000e+00	0.00000000e+00	0.00000000e+00
5.15361203e-01	2.45031818e+02	1.94038665e+00	-7.63755078e+02	1.18450849e+02	-2.40068233e+05	-2.39838392e+05	5.77895020e-06	7.18695415e-03	9.51736485e+02	8.46800080e+02	1.53746085e+02	0.00000000e+00	0.00000000e+00	0.00000000e+00
5.15361203e-01	2.48062121e+02	1.94038665e+00	-7.40058964e+02	1.51404228e+02	-2.34225851e+05	-2.33932069e+05	5.84544413e-06	7.36471940e-03	9.61675819e+02	8.57439652e+02	1.54684328e+02	0.00000000e+00	0.00000000e+00	0.00000000e+00
5.15361203e-01	2.51092424e+02	1.94038665e+00	-7.15596042e+02	1.92186920e+02	-2.28120251e+05	-2.27747334e+05	5.91195492e-06	7.54542088e-03	9.71780653e+02	8.68193208e+02	1.55614038e+02	0.00000000e+00	0.00000000e+00	0.00000000e+00
5.15361203e-01	2.54122727e+02	1.94038665e+00	-6.90218756e+02	2.42332941e+02	-2.21709505e+05	-2.21239285e+05	5.97848838e-06	7.72902627e-03	9.82034962e+02	8.79050262e+02	1.56535592e+02	0.00000000e+00	0.00000000e+00	0.00000000e+00
5.15361203e-01	2.57153030e+02	1.94038665e+00	-6.63764945e+02	3.03609220e+02	-2.14946616e+05	-2.14357496e+05	6.04504949e-06	7.91550356e-03	9.92424677e+02	8.90001477e+02	1.57449335e+02	0.00000000e+00	0.00000000e+00	0.00000000e+00
5.15361203e-01	2.60183333e+02	1.94038665e+00	-6.36057246e+02	3.78039362e+02	-2.07779175e+05	-2.07045633e+05	6.11164259e-06	8.10482098e-03	1.00293734e+03	9.01038466e+02	1.58355583e+02	0.00000000e+00	0.00000000e+00	0.00000000e+00
5.15361203e-01	2.63213636e+02	1.94038665e+00	-6.06902575e+02	4.67928265e+02	-2.00149051e+05	-1.99241089e+05	6.17827137e-06	8.29694706e-03	1.01356182e+03	9.12153628e+02	1.59254628e+02	0.00000000e+00	0.00000000e+00	0.00000000e+00
5.15361203e-01	2.66243939e+02	1.94038665e+00	-5.76091716e+02	5.75887433e+02	-1.91992083e+05	-1.90874639e+05	6.24493900e-06	8.49185054e-03	1.02428812e+03	9.23340019e+02	1.60146740e+02	0.00000000e+00	0.00000000e+00	0.00000000e+00
5.15361203e-01	2.69274242e+02	1.94038665e+00	-5.43399002e+02	7.04860836e+02	-1.83237807e+05	-1.81870104e+05	6.31164814e-06	8.68950044e-03	1.03510715e+03	9.34591250e+02	1.61032168e+02	0.00000000e+00	0.00000000e+00	0.00000000e+00
5.15361203e-01	2.72304545e+02	1.94038665e+00	-5.08582115e+02	8.58151161e+02	-1.73809195e+05	-1.72144050e+05	6.37840102e-06	8.88986602e-03	1.04601062e+03	9.45901400e+02	1.61911147e+02	0.00000000e+00	0.00000000e+00	0.00000000e+00
5.15361203e-01	2.75334848e+02	1.94038665e+00	-4.71381988e+02	1.03944627e+03	-1.63622432e+05	-1.61605504e+05	6.44519948e-06	9.09291677e-03	1.05699094e+03	9.57264956e+02	1.62783893e+02	0.00000000e+00	0.00000000e+00	0.00000000e+00
5.15361203e-01	2.78365152e+02	1.94038665e+00	-4.31522829e+02	1.25284571e+03	-1.52586716e+05	-1.50155711e+05	6.51204501e-06	9.29862242e-03	1.06804108e+03	9.68676749e+02	1.63650610e+02	0.00000000e+00	0.00000000e+00	0.00000000e+00
5.15361203e-01	2.81395455e+02	1.94038665e+00	-3.88712252e+02	1.50288704e+03	-1.40604095e+05	-1.37687913e+05	6.57893878e-06	9.50695291e-03	1.07915451e+03	9.80131919e+02	1.64511488e+02	0.00000000e+00	0.00000000e+00	0.00000000e+00
5.15361203e-01	2.84425758e+02	1.94038665e+00	-3.42641526e+02	1.79457192e+03	-1.27569334e+05	-1.24087171e+05	6.64588169e-06	9.71787845e-03	1.09032516e+03	9.91625874e+02	1.65366706e+02	0.00000000e+00	0.00000000e+00	0.00000000e+00
5.15361203e-01	2.87456061e+02	1.94038665e+00	-2.92985932e+02	2.13339164e+03	-1.13369821e+05	-1.09230217e+05	6.71287438e-06	9.93136943e-03	1.10154733e+03	1.00315426e+03	1.66216431e+02	0.00000000e+00	0.00000000e+00	0.00000000e+00
5.15361203e-01	2.90486364e+02	1.94038665e+00	-2.39405230e+02	2.52535203e+03	-9.78855054e+04	-9.29853461e+04	6.77991727e-06	1.01473965e-02	1.11281567e+03	1.01471294e+03	1.67060823e+02	0.00000000e+00	0.00000000e+00	0.00000000e+00
5.15361203e-01	2.93516667e+02	1.94038665e+00	-1.81544217e+02	2.97699753e+03	-8.09888751e+04	-7.52123489e+04	6.84701059e-06	1.03659305e-02	1.12412516e+03	1.02629797e+03	1.67900030e+02	0.00000000e+00	0.00000000e+00	0.00000000e+00
5.15361203e-01	2.96546970e+02	1.94038665e+00	-1.19033391e+02	3.49543430e+03	-6.25449706e+04	-5.57624766e+04	6.91415437e-06	1.05869424e-02	1.13547102e+03	1.03790558e+03	1.68734194e+02	0.00000000e+00	0.00000000e+00	0.00000000e+00
5.15361203e-01	2.99577273e+02	1.94038665e+00	-5.14896938e+01	4.08835224e+03	-4.24114325e+04	-3.44784484e+04	6.98134849e-06	1.08104037e-02	1.14684876e+03	1.04953219e+03	1.69563448e+02	0.00000000e+00	0.00000000e+00	0.00000000e+00
5.15361203e-01	3.02607576e+02	1.94038665e+00	2.14826689e+01	4.76404574e+03	-2.04385851e+04	-1.11944944e+04	7.04859268e-06	1.10362857e-02	1.15825410e+03	1.06117434e+03	1.70387920e+02	0.00000000e+00	0.00000000e+00	0.00000000e+00
5.15361203e-01	3.05637879e+02	1.94038665e+00	1.00291332e+02	5.53143310e+03	3.53044673e+03	1.42635657e+04	7.11588654e-06	1.12645601e-02	1.16968297e+03	1.07282874e+03	1.71207728e+02	0.00000000e+00	0.00000000e+00	0.00000000e+00
5.15361203e-01	3.08668182e+02	1.94038665e+00	1.85354825e+02	6.40007449e+03	2.96595893e+04	4.20782084e+04	7.18322958e-06	1.14951989e-02	1.18113152e+03	1.08449222e+03	1.72022988e+02	0.00000000e+00	0.00000000e+00	0.00000000e+00
5.15361203e-01	3.11698485e+02	1.94038665e+00	2.77101565e+02	7.38018837e+03	5.81196415e+04	7.24400605e+04	7.25062117e-06	1.17281742e-02	1.19259606e+03	1.09616173e+03	1.72833808e+02	0.00000000e+00	0.00000000e+00	0.00000000e+00
5.15361203e-01	3.14728788e+02	1.94038665e+00	3.75968826e+02	8.48266632e+03	8.90880698e+04	1.05547722e+05	7.31806061e-06	1.19634582e-02	1.20407308e+03	1.10783438e+03	1.73640291e+02	0.00000000e+00	0.00000000e+00	0.00000000e+00
5.15361203e-01	3.17759091e+02	1.94038665e+00	4.82401664e+02	9.71908621e+03	1.22748777e+05	1.41607562e+05	7.38554712e-06	1.22010236e-02	1.21555923e+03	1.11950734e+03	1.74442535e+02	0.00000000e+00	0.00000000e+00	0.00000000e+00
5.15361203e-01	3.20789394e+02	1.94038665e+00	5.96851831e+02	1.11017237e+04	1.59291850e+05	1.80833486e+05	7.45307983e-06	1.24408429e-02	1.22705132e+03	1.13117795e+03	1.75240634e+02	0.00000000e+00	0.00000000e+00	0.00000000e+00