TITLE="table"
VARIABLES="d" "T" "v" "s" "P" "u" "h" "eta" "lambda" "cp" "cv" "c" "alpha" "beta" "zeta"
ZONE I=20, J=20 DATAPACKING=POINT
5.00000000e-03	3.10000000e+02	2.00000000e+02	1.26378367e+03	1.39853902e+02	2.40638345e+05	2.68609125e+05	7.24157214e-06	1.16396333e-02	1.17321635e+03	1.08291824e+03	1.74067622e+02	0.00000000e+00	0.00000000e+00	0.00000000e+00
5.00000000e-03	3.30000000e+02	2.00000000e+02	1.33391550e+03	1.48879501e+02	2.63081388e+05	2.92857288e+05	7.68227643e-06	1.32227929e-02	1.25157439e+03	1.16128694e+03	1.79130498e+02	0.00000000e+00	0.00000000e+00	0.00000000e+00
5.00000000e-03	3.50000000e+02	2.00000000e+02	1.40450957e+03	1.57904783e+02	2.87084051e+05	3.18665008e+05	8.12583784e-06	1.48994031e-02	1.32907323e+03	1.23879390e+03	1.84064156e+02	0.00000000e+00	0.00000000e+00	0.00000000e+00
5.00000000e-03	3.70000000e+02	2.00000000e+02	1.47545338e+03	1.66929822e+02	3.12624309e+05	3.46010273e+05	8.57163065e-06	1.66620795e-02	1.40525220e+03	1.31497916e+03	1.88879058e+02	0.00000000e+00	0.00000000e+00	0.00000000e+00
5.00000000e-03	3.90000000e+02	2.00000000e+02	1.54663087e+03	1.75954676e+02	3.39672048e+05	3.74862983e+05	9.01909570e-06	1.85037886e-02	1.47976017e+03	1.38949208e+03	1.93583873e+02	0.00000000e+00	0.00000000e+00	0.00000000e+00
5.00000000e-03	4.10000000e+02	2.00000000e+02	1.61792828e+03	1.84979383e+02	3.68191122e+05	4.05186998e+05	9.46773014e-06	2.04178396e-02	1.55234127e+03	1.46207713e+03	1.98185965e+02	0.00000000e+00	0.00000000e+00	0.00000000e+00
5.00000000e-03	4.30000000e+02	2.00000000e+02	1.68923788e+03	1.94003975e+02	3.98141089e+05	4.36941884e+05	9.91707948e-06	2.23978766e-02	1.62281860e+03	1.53255765e+03	2.02691724e+02	0.00000000e+00	0.00000000e+00	0.00000000e+00
5.00000000e-03	4.50000000e+02	2.00000000e+02	1.76046008e+03	2.03028474e+02	4.29478630e+05	4.70084325e+05	1.03667313e-05	2.44378699e-02	1.69107855e+03	1.60082020e+03	2.07106793e+02	0.00000000e+00	0.00000000e+00	0.00000000e+00
5.00000000e-03	4.70000000e+02	2.00000000e+02	1.83150445e+03	2.12052898e+02	4.62158675e+05	5.04569254e+05	1.08163100e-05	2.65321081e-02	1.75705689e+03	1.66680068e+03	2.11436225e+02	0.00000000e+00	0.00000000e+00	0.00000000e+00
5.00000000e-03	4.90000000e+02	2.00000000e+02	1.90229004e+03	2.21077260e+02	4.96135263e+05	5.40350715e+05	1.12654728e-05	2.86751899e-02	1.82072728e+03	1.73047287e+03	2.15684594e+02	0.00000000e+00	0.00000000e+00	0.00000000e+00
5.00000000e-03	5.10000000e+02	2.00000000e+02	1.97274515e+03	2.30101573e+02	5.31362212e+05	5.77382526e+05	1.17139062e-05	3.08620159e-02	1.88209204e+03	1.79183914e+03	2.19856068e+02	0.00000000e+00	0.00000000e+00	0.00000000e+00
5.00000000e-03	5.30000000e+02	2.00000000e+02	2.04280688e+03	2.39125843e+02	5.67793611e+05	6.15618780e+05	1.21613227e-05	3.30877804e-02	1.94117495e+03	1.85092333e+03	2.23954473e+02	0.00000000e+00	0.00000000e+00	0.00000000e+00
5.00000000e-03	5.50000000e+02	2.00000000e+02	2.11242053e+03	2.48150078e+02	6.05384194e+05	6.55014209e+05	1.26074588e-05	3.53479632e-02	1.99801574e+03	1.90776522e+03	2.27983333e+02	0.00000000e+00	0.00000000e+00	0.00000000e+00
5.00000000e-03	5.70000000e+02	2.00000000e+02	2.18153889e+03	2.57174283e+02	6.44089613e+05	6.95524469e+05	1.30520722e-05	3.76383215e-02	2.05266594e+03	1.96241636e+03	2.31945905e+02	0.00000000e+00	0.00000000e+00	0.00000000e+00
5.00000000e-03	5.90000000e+02	2.00000000e+02	2.25012157e+03	2.66198463e+02	6.83866643e+05	7.37106335e+05	1.34949405e-05	3.99548816e-02	2.10518570e+03	2.01493693e+03	2.35845206e+02	0.00000000e+00	0.00000000e+00	0.00000000e+00
5.00000000e-03	6.10000000e+02	2.00000000e+02	2.31813433e+03	2.75222622e+02	7.24673328e+05	7.79717852e+05	1.39358589e-05	4.22939310e-02	2.15564140e+03	2.06539334e+03	2.39684042e+02	0.00000000e+00	0.00000000e+00	0.00000000e+00
5.00000000e-03	6.30000000e+02	2.00000000e+02	2.38554849e+03	2.84246762e+02	7.66469087e+05	8.23318439e+05	1.43746391e-05	4.46520097e-02	2.20410385e+03	2.11385642e+03	2.43465021e+02	0.00000000e+00	0.00000000e+00	0.00000000e+00
5.00000000e-03	6.50000000e+02	2.00000000e+02	2.45234030e+03	2.93270886e+02	8.09214787e+05	8.67868965e+05	1.48111080e-05	4.70259025e-02	2.25064685e+03	2.16039997e+03	2.47190575e+02	0.00000000e+00	0.00000000e+00	0.00000000e+00
5.00000000e-03	6.70000000e+02	2.00000000e+02	2.51849043e+03	3.02294997e+02	8.52872793e+05	9.13331793e+05	1.52451064e-05	4.94126307e-02	2.29534604e+03	2.20509966e+03	2.50862976e+02	0.00000000e+00	0.00000000e+00	0.00000000e+00
5.00000000e-03	6.90000000e+02	2.00000000e+02	2.58398353e+03	3.11319095e+02	8.97406992e+05	9.59670811e+05	1.56764877e-05	5.18094438e-02	2.33827806e+03	2.24803212e+03	2.54484347e+02	0.00000000e+00	0.00000000e+00	0.00000000e+00
8.58683379e-03	3.10000000e+02	1.16457361e+02	1.21496955e+03	2.40160199e+02	2.40631766e+05	2.68600189e+05	7.24136690e-06	1.16393295e-02	1.17330570e+03	1.08296512e+03	1.74055809e+02	0.00000000e+00	0.00000000e+00	0.00000000e+00
8.58683379e-03	3.30000000e+02	1.16457361e+02	1.28510400e+03	2.55662565e+02	2.63075647e+05	2.92849434e+05	7.68210702e-06	1.32225105e-02	1.25164653e+03	1.16132426e+03	1.79120070e+02	0.00000000e+00	0.00000000e+00	0.00000000e+00
8.58683379e-03	3.50000000e+02	1.16457361e+02	1.35570005e+03	2.71163994e+02	2.87078981e+05	3.18658024e+05	8.12569703e-06	1.48991422e-02	1.32913233e+03	1.23882402e+03	1.84054858e+02	0.00000000e+00	0.00000000e+00	0.00000000e+00
8.58683379e-03	3.70000000e+02	1.16457361e+02	1.42664537e+03	2.86664711e+02	3.12619783e+05	3.46003998e+05	8.57151323e-06	1.66618401e-02	1.40530126e+03	1.31500376e+03	1.88870694e+02	0.00000000e+00	0.00000000e+00	0.00000000e+00
8.58683379e-03	3.90000000e+02	1.16457361e+02	1.49782404e+03	3.02164878e+02	3.39667969e+05	3.74857293e+05	9.01899779e-06	1.85035706e-02	1.47980139e+03	1.38951238e+03	1.93576293e+02	0.00000000e+00	0.00000000e+00	0.00000000e+00
8.58683379e-03	4.10000000e+02	1.16457361e+02	1.56912238e+03	3.17664614e+02	3.68187414e+05	4.05181797e+05	9.46764877e-06	2.04176431e-02	1.55237628e+03	1.46209405e+03	1.98179049e+02	0.00000000e+00	0.00000000e+00	0.00000000e+00
8.58683379e-03	4.30000000e+02	1.16457361e+02	1.64043272e+03	3.33164009e+02	3.98137692e+05	4.36937093e+05	9.91701234e-06	2.23977016e-02	1.62284864e+03	1.53257188e+03	2.02685377e+02	0.00000000e+00	0.00000000e+00	0.00000000e+00
8.58683379e-03	4.50000000e+02	1.16457361e+02	1.71165551e+03	3.48663131e+02	4.29475495e+05	4.70079883e+05	1.03666765e-05	2.44377164e-02	1.69110454e+03	1.60083225e+03	2.07100939e+02	0.00000000e+00	0.00000000e+00	0.00000000e+00
8.58683379e-03	4.70000000e+02	1.16457361e+02	1.78270037e+03	3.64162031e+02	4.62155762e+05	5.04565111e+05	1.08162661e-05	2.65319760e-02	1.75707958e+03	1.66681098e+03	2.11430803e+02	0.00000000e+00	0.00000000e+00	0.00000000e+00
8.58683379e-03	4.90000000e+02	1.16457361e+02	1.85348635e+03	3.79660751e+02	4.96132542e+05	5.40346831e+05	1.12654385e-05	2.86750793e-02	1.82074724e+03	1.73048172e+03	2.15679551e+02	0.00000000e+00	0.00000000e+00	0.00000000e+00
8.58683379e-03	5.10000000e+02	1.16457361e+02	1.92394179e+03	3.95159322e+02	5.31359655e+05	5.77378867e+05	1.17138804e-05	3.08619268e-02	1.88210973e+03	1.79184680e+03	2.19851362e+02	0.00000000e+00	0.00000000e+00	0.00000000e+00
8.58683379e-03	5.30000000e+02	1.16457361e+02	1.99400380e+03	4.10657769e+02	5.67791197e+05	6.15615317e+05	1.21613047e-05	3.30877128e-02	1.94119073e+03	1.85092999e+03	2.23950069e+02	0.00000000e+00	0.00000000e+00	0.00000000e+00
8.58683379e-03	5.50000000e+02	1.16457361e+02	2.06361768e+03	4.26156111e+02	6.05381905e+05	6.55010921e+05	1.26074477e-05	3.53479170e-02	1.99802990e+03	1.90777105e+03	2.27979201e+02	0.00000000e+00	0.00000000e+00	0.00000000e+00
8.58683379e-03	5.70000000e+02	1.16457361e+02	2.13273624e+03	4.41654367e+02	6.44087433e+05	6.95521335e+05	1.30520673e-05	3.76382968e-02	2.05267872e+03	1.96242149e+03	2.31942018e+02	0.00000000e+00	0.00000000e+00	0.00000000e+00
8.58683379e-03	5.90000000e+02	1.16457361e+02	2.20131908e+03	4.57152548e+02	6.83864560e+05	7.37103339e+05	1.34949413e-05	3.99548784e-02	2.10519729e+03	2.01494146e+03	2.35841544e+02	0.00000000e+00	0.00000000e+00	0.00000000e+00
8.58683379e-03	6.10000000e+02	1.16457361e+02	2.26933199e+03	4.72650666e+02	7.24671330e+05	7.79714979e+05	1.39358648e-05	4.22939493e-02	2.15565197e+03	2.06539737e+03	2.39680585e+02	0.00000000e+00	0.00000000e+00	0.00000000e+00
8.58683379e-03	6.30000000e+02	1.16457361e+02	2.33674627e+03	4.88148730e+02	7.66467166e+05	8.23315678e+05	1.43746497e-05	4.46520494e-02	2.20411354e+03	2.11386001e+03	2.43461753e+02	0.00000000e+00	0.00000000e+00	0.00000000e+00
8.58683379e-03	6.50000000e+02	1.16457361e+02	2.40353818e+03	5.03646747e+02	8.09212934e+05	8.67866305e+05	1.48111230e-05	4.70259638e-02	2.25065576e+03	2.16040319e+03	2.47187482e+02	0.00000000e+00	0.00000000e+00	0.00000000e+00
8.58683379e-03	6.70000000e+02	1.16457361e+02	2.46968841e+03	5.19144722e+02	8.52871001e+05	9.13329225e+05	1.52451253e-05	4.94127134e-02	2.29535428e+03	2.20510255e+03	2.50860045e+02	0.00000000e+00	0.00000000e+00	0.00000000e+00
8.58683379e-03	6.90000000e+02	1.16457361e+02	2.53518159e+03	5.34642663e+02	8.97405255e+05	9.59668328e+05	1.56765102e-05	5.18095480e-02	2.33828571e+03	2.24803472e+03	2.54481568e+02	0.00000000e+00	0.00000000e+00	0.00000000e+00
1.47467429e-02	3.10000000e+02	6.78115842e+01	1.16614566e+03	4.12383436e+02	2.40620468e+05	2.68584842e+05	7.24101468e-06	1.16388079e-02	1.17345920e+03	1.08304562e+03	1.74035520e+02	0.00000000e+00	0.00000000e+00	0.00000000e+00
1.47467429e-02	3.30000000e+02	6.78115842e+01	1.23628461e+03	4.39012886e+02	2.63065787e+05	2.92835946e+05	7.68181633e-06	1.32220257e-02	1.25177045e+03	1.16138836e+03	1.79102161e+02	0.00000000e+00	0.00000000e+00	0.00000000e+00
1.47467429e-02	3.50000000e+02	6.78115842e+01	1.30688405e+03	4.65639572e+02	2.87070273e+05	3.18646030e+05	8.12545544e-06	1.48986942e-02	1.32923385e+03	1.23887573e+03	1.84038889e+02	0.00000000e+00	0.00000000e+00	0.00000000e+00
1.47467429e-02	3.70000000e+02	6.78115842e+01	1.37783198e+03	4.92264156e+02	3.12612011e+05	3.45993223e+05	8.57131178e-06	1.66614289e-02	1.40538554e+03	1.31504599e+03	1.88856330e+02	0.00000000e+00	0.00000000e+00	0.00000000e+00
1.47467429e-02	3.90000000e+02	6.78115842e+01	1.44901267e+03	5.18887118e+02	3.39660965e+05	3.74847522e+05	9.01882983e-06	1.85031963e-02	1.47987220e+03	1.38954724e+03	1.93563274e+02	0.00000000e+00	0.00000000e+00	0.00000000e+00
1.47467429e-02	4.10000000e+02	6.78115842e+01	1.52031260e+03	5.45508810e+02	3.68181047e+05	4.05172863e+05	9.46750921e-06	2.04173057e-02	1.55243642e+03	1.46212310e+03	1.98167171e+02	0.00000000e+00	0.00000000e+00	0.00000000e+00
1.47467429e-02	4.30000000e+02	6.78115842e+01	1.59162421e+03	5.72129496e+02	3.98131857e+05	4.36928865e+05	9.91689720e-06	2.23974011e-02	1.62290022e+03	1.53259630e+03	2.02674478e+02	0.00000000e+00	0.00000000e+00	0.00000000e+00
1.47467429e-02	4.50000000e+02	6.78115842e+01	1.66284803e+03	5.98749377e+02	4.29470111e+05	4.70072255e+05	1.03665826e-05	2.44374527e-02	1.69114919e+03	1.60085296e+03	2.07090886e+02	0.00000000e+00	0.00000000e+00	0.00000000e+00
1.47467429e-02	4.70000000e+02	6.78115842e+01	1.73389372e+03	6.25368605e+02	4.62150761e+05	5.04557997e+05	1.08161908e-05	2.65317493e-02	1.75711855e+03	1.66682866e+03	2.11421490e+02	0.00000000e+00	0.00000000e+00	0.00000000e+00
1.47467429e-02	4.90000000e+02	6.78115842e+01	1.80468039e+03	6.51987299e+02	4.96127868e+05	5.40340160e+05	1.12653798e-05	2.86748894e-02	1.82078153e+03	1.73049692e+03	2.15670890e+02	0.00000000e+00	0.00000000e+00	0.00000000e+00
1.47467429e-02	5.10000000e+02	6.78115842e+01	1.87513639e+03	6.78605554e+02	5.31355265e+05	5.77372582e+05	1.17138364e-05	3.08617738e-02	1.88214010e+03	1.79185995e+03	2.19843281e+02	0.00000000e+00	0.00000000e+00	0.00000000e+00
1.47467429e-02	5.30000000e+02	6.78115842e+01	1.94519888e+03	7.05223443e+02	5.67787052e+05	6.15609371e+05	1.21612738e-05	3.30875966e-02	1.94121782e+03	1.85094144e+03	2.23942506e+02	0.00000000e+00	0.00000000e+00	0.00000000e+00
1.47467429e-02	5.50000000e+02	6.78115842e+01	2.01481316e+03	7.31841026e+02	6.05377974e+05	6.55005273e+05	1.26074286e-05	3.53478378e-02	1.99805422e+03	1.90778107e+03	2.27972104e+02	0.00000000e+00	0.00000000e+00	0.00000000e+00
1.47467429e-02	5.70000000e+02	6.78115842e+01	2.08393204e+03	7.58458351e+02	6.44083691e+05	6.95515953e+05	1.30520591e-05	3.76382545e-02	2.05270067e+03	1.96243030e+03	2.31935344e+02	0.00000000e+00	0.00000000e+00	0.00000000e+00
1.47467429e-02	5.90000000e+02	6.78115842e+01	2.15251517e+03	7.85075458e+02	6.83860983e+05	7.37098193e+05	1.34949427e-05	3.99548730e-02	2.10521721e+03	2.01494925e+03	2.35835255e+02	0.00000000e+00	0.00000000e+00	0.00000000e+00
1.47467429e-02	6.10000000e+02	6.78115842e+01	2.22052833e+03	8.11692377e+02	7.24667900e+05	7.79710046e+05	1.39358751e-05	4.22939807e-02	2.15567014e+03	2.06540428e+03	2.39674648e+02	0.00000000e+00	0.00000000e+00	0.00000000e+00
1.47467429e-02	6.30000000e+02	6.78115842e+01	2.28794282e+03	8.38309137e+02	7.66463866e+05	8.23310936e+05	1.43746681e-05	4.46521178e-02	2.20413019e+03	2.11386618e+03	2.43456141e+02	0.00000000e+00	0.00000000e+00	0.00000000e+00
1.47467429e-02	6.50000000e+02	6.78115842e+01	2.35473491e+03	8.64925757e+02	8.09209751e+05	8.67861737e+05	1.48111488e-05	4.70260689e-02	2.25067108e+03	2.16040871e+03	2.47182170e+02	0.00000000e+00	0.00000000e+00	0.00000000e+00
1.47467429e-02	6.70000000e+02	6.78115842e+01	2.42088530e+03	8.91542258e+02	8.52867922e+05	9.13324815e+05	1.52451578e-05	4.94128555e-02	2.29536843e+03	2.20510751e+03	2.50855013e+02	0.00000000e+00	0.00000000e+00	0.00000000e+00
1.47467429e-02	6.90000000e+02	6.78115842e+01	2.48637861e+03	9.18158654e+02	8.97402270e+05	9.59664063e+05	1.56765489e-05	5.18097270e-02	2.33829883e+03	2.24803920e+03	2.54476795e+02	0.00000000e+00	0.00000000e+00	0.00000000e+00
2.53255661e-02	3.10000000e+02	3.94857906e+01	1.11730500e+03	7.08037510e+02	2.40601065e+05	2.68558486e+05	7.24041042e-06	1.16379127e-02	1.17372294e+03	1.08318387e+03	1.74000673e+02	0.00000000e+00	0.00000000e+00	0.00000000e+00
2.53255661e-02	3.30000000e+02	3.94857906e+01	1.18745167e+03	7.53788333e+02	2.63048853e+05	2.92812781e+05	7.68131768e-06	1.32211936e-02	1.25198335e+03	1.16149843e+03	1.79071402e+02	0.00000000e+00	0.00000000e+00	0.00000000e+00
2.53255661e-02	3.50000000e+02	3.94857906e+01	1.25805695e+03	7.99531002e+02	2.87055319e+05	3.18625433e+05	8.12504109e-06	1.48979253e-02	1.32940827e+03	1.23896455e+03	1.84011462e+02	0.00000000e+00	0.00000000e+00	0.00000000e+00
2.53255661e-02	3.70000000e+02	3.94857906e+01	1.32900934e+03	8.45267472e+02	3.12598663e+05	3.45974717e+05	8.57096635e-06	1.66607232e-02	1.40553033e+03	1.31511851e+03	1.88831660e+02	0.00000000e+00	0.00000000e+00	0.00000000e+00
2.53255661e-02	3.90000000e+02	3.94857906e+01	1.40019350e+03	8.90999158e+02	3.39648936e+05	3.74830742e+05	9.01854188e-06	1.85025539e-02	1.47999383e+03	1.38960711e+03	1.93540914e+02	0.00000000e+00	0.00000000e+00	0.00000000e+00
2.53255661e-02	4.10000000e+02	3.94857906e+01	1.47149618e+03	9.36727099e+02	3.68170111e+05	4.05157521e+05	9.46727002e-06	2.04167266e-02	1.55253971e+03	1.46217300e+03	1.98146771e+02	0.00000000e+00	0.00000000e+00	0.00000000e+00
2.53255661e-02	4.30000000e+02	3.94857906e+01	1.54280997e+03	9.82452074e+02	3.98121837e+05	4.36914734e+05	9.91669992e-06	2.23968852e-02	1.62298882e+03	1.53263826e+03	2.02655758e+02	0.00000000e+00	0.00000000e+00	0.00000000e+00
2.53255661e-02	4.50000000e+02	3.94857906e+01	1.61403554e+03	1.02817467e+03	4.29460864e+05	4.70059154e+05	1.03664218e-05	2.44370001e-02	1.69122589e+03	1.60088852e+03	2.07073621e+02	0.00000000e+00	0.00000000e+00	0.00000000e+00
2.53255661e-02	4.70000000e+02	3.94857906e+01	1.68508266e+03	1.07389534e+03	4.62142172e+05	5.04545778e+05	1.08160620e-05	2.65313600e-02	1.75718550e+03	1.66685903e+03	2.11405496e+02	0.00000000e+00	0.00000000e+00	0.00000000e+00
2.53255661e-02	4.90000000e+02	3.94857906e+01	1.75587051e+03	1.11961444e+03	4.96119842e+05	5.40328704e+05	1.12652793e-05	2.86745635e-02	1.82084042e+03	1.73052303e+03	2.15656016e+02	0.00000000e+00	0.00000000e+00	0.00000000e+00
2.53255661e-02	5.10000000e+02	3.94857906e+01	1.82632748e+03	1.16533225e+03	5.31347725e+05	5.77361790e+05	1.17137611e-05	3.08615112e-02	1.88219228e+03	1.79188254e+03	2.19829401e+02	0.00000000e+00	0.00000000e+00	0.00000000e+00
2.53255661e-02	5.30000000e+02	3.94857906e+01	1.89639078e+03	1.21104897e+03	5.67779934e+05	6.15599160e+05	1.21612211e-05	3.30873973e-02	1.94126436e+03	1.85096110e+03	2.23929516e+02	0.00000000e+00	0.00000000e+00	0.00000000e+00
2.53255661e-02	5.50000000e+02	3.94857906e+01	1.96600574e+03	1.25676479e+03	6.05371224e+05	6.54995575e+05	1.26073963e-05	3.53477018e-02	1.99809598e+03	1.90779827e+03	2.27959915e+02	0.00000000e+00	0.00000000e+00	0.00000000e+00
2.53255661e-02	5.70000000e+02	3.94857906e+01	2.03512520e+03	1.30247985e+03	6.44077263e+05	6.95506710e+05	1.30520452e-05	3.76381818e-02	2.05273836e+03	1.96244543e+03	2.31923881e+02	0.00000000e+00	0.00000000e+00	0.00000000e+00
2.53255661e-02	5.90000000e+02	3.94857906e+01	2.10370882e+03	1.34819427e+03	6.83854839e+05	7.37089356e+05	1.34949455e-05	3.99548637e-02	2.10525141e+03	2.01496262e+03	2.35824454e+02	0.00000000e+00	0.00000000e+00	0.00000000e+00
2.53255661e-02	6.10000000e+02	3.94857906e+01	2.17172240e+03	1.39390814e+03	7.24662009e+05	7.79701574e+05	1.39358931e-05	4.22940347e-02	2.15570133e+03	2.06541616e+03	2.39664453e+02	0.00000000e+00	0.00000000e+00	0.00000000e+00
2.53255661e-02	6.30000000e+02	3.94857906e+01	2.23913725e+03	1.43962153e+03	7.66458199e+05	8.23302793e+05	1.43747000e-05	4.46522351e-02	2.20415877e+03	2.11387677e+03	2.43446504e+02	0.00000000e+00	0.00000000e+00	0.00000000e+00
2.53255661e-02	6.50000000e+02	3.94857906e+01	2.30592966e+03	1.48533451e+03	8.09204285e+05	8.67853892e+05	1.48111933e-05	4.70262496e-02	2.25069739e+03	2.16041818e+03	2.47173049e+02	0.00000000e+00	0.00000000e+00	0.00000000e+00
2.53255661e-02	6.70000000e+02	3.94857906e+01	2.37208032e+03	1.53104714e+03	8.52862636e+05	9.13317242e+05	1.52452139e-05	4.94130995e-02	2.29539274e+03	2.20511603e+03	2.50846370e+02	0.00000000e+00	0.00000000e+00	0.00000000e+00
2.53255661e-02	6.90000000e+02	3.94857906e+01	2.43757387e+03	1.57675946e+03	8.97397146e+05	9.59656740e+05	1.56766157e-05	5.18100343e-02	2.33832138e+03	2.24804688e+03	2.54468599e+02	0.00000000e+00	0.00000000e+00	0.00000000e+00
4.34932854e-02	3.10000000e+02	2.29920548e+01	1.06843552e+03	1.21544073e+03	2.40567743e+05	2.68513222e+05	7.23937419e-06	1.16363770e-02	1.17417627e+03	1.08342132e+03	1.73940816e+02	0.00000000e+00	0.00000000e+00	0.00000000e+00
4.34932854e-02	3.30000000e+02	2.29920548e+01	1.13859547e+03	1.29406561e+03	2.63019772e+05	2.92773000e+05	7.68046276e-06	1.32197660e-02	1.25234925e+03	1.16168746e+03	1.79018567e+02	0.00000000e+00	0.00000000e+00	0.00000000e+00
4.34932854e-02	3.50000000e+02	2.29920548e+01	1.20921075e+03	1.37266645e+03	2.87029637e+05	3.18590059e+05	8.12433085e-06	1.48966059e-02	1.32970798e+03	1.23911708e+03	1.83964353e+02	0.00000000e+00	0.00000000e+00	0.00000000e+00
4.34932854e-02	3.70000000e+02	2.29920548e+01	1.28017082e+03	1.45124900e+03	3.12575739e+05	3.45942936e+05	8.57037441e-06	1.66595122e-02	1.40577910e+03	1.31524307e+03	1.88789288e+02	0.00000000e+00	0.00000000e+00	0.00000000e+00
4.34932854e-02	3.90000000e+02	2.29920548e+01	1.35136095e+03	1.52981745e+03	3.39628277e+05	3.74801924e+05	9.01804860e-06	1.85014514e-02	1.48020281e+03	1.38970992e+03	1.93502511e+02	0.00000000e+00	0.00000000e+00	0.00000000e+00
4.34932854e-02	4.10000000e+02	2.29920548e+01	1.42266833e+03	1.60837485e+03	3.68151331e+05	4.05131174e+05	9.46686040e-06	2.04157326e-02	1.55271719e+03	1.46225869e+03	1.98111734e+02	0.00000000e+00	0.00000000e+00	0.00000000e+00
4.34932854e-02	4.30000000e+02	2.29920548e+01	1.49398586e+03	1.68692350e+03	3.98104630e+05	4.36890467e+05	9.91636223e-06	2.23959998e-02	1.62314104e+03	1.53271031e+03	2.02623607e+02	0.00000000e+00	0.00000000e+00	0.00000000e+00
4.34932854e-02	4.50000000e+02	2.29920548e+01	1.56521446e+03	1.76546514e+03	4.29444984e+05	4.70036655e+05	1.03661466e-05	2.44362234e-02	1.69135765e+03	1.60094960e+03	2.07043969e+02	0.00000000e+00	0.00000000e+00	0.00000000e+00
4.34932854e-02	4.70000000e+02	2.29920548e+01	1.63626403e+03	1.84400110e+03	4.62127420e+05	5.04524795e+05	1.08158418e-05	2.65306919e-02	1.75730050e+03	1.66691118e+03	2.11378027e+02	0.00000000e+00	0.00000000e+00	0.00000000e+00
4.34932854e-02	4.90000000e+02	2.29920548e+01	1.70705389e+03	1.92253242e+03	4.96106059e+05	5.40309030e+05	1.12651076e-05	2.86740041e-02	1.82094158e+03	1.73056787e+03	2.15630471e+02	0.00000000e+00	0.00000000e+00	0.00000000e+00
4.34932854e-02	5.10000000e+02	2.29920548e+01	1.77751254e+03	2.00105992e+03	5.31334776e+05	5.77343255e+05	1.17136328e-05	3.08610605e-02	1.88228191e+03	1.79192133e+03	2.19805565e+02	0.00000000e+00	0.00000000e+00	0.00000000e+00
4.34932854e-02	5.30000000e+02	2.29920548e+01	1.84757723e+03	2.07958424e+03	5.67767709e+05	6.15581624e+05	1.21611316e-05	3.30870553e-02	1.94134429e+03	1.85099486e+03	2.23907208e+02	0.00000000e+00	0.00000000e+00	0.00000000e+00
4.34932854e-02	5.50000000e+02	2.29920548e+01	1.91719336e+03	2.15810590e+03	6.05359630e+05	6.54978919e+05	1.26073417e-05	3.53474685e-02	1.99816772e+03	1.90782781e+03	2.27938984e+02	0.00000000e+00	0.00000000e+00	0.00000000e+00
4.34932854e-02	5.70000000e+02	2.29920548e+01	1.98631382e+03	2.23662531e+03	6.44066224e+05	6.95490836e+05	1.30520221e-05	3.76380573e-02	2.05280311e+03	1.96247141e+03	2.31904197e+02	0.00000000e+00	0.00000000e+00	0.00000000e+00
4.34932854e-02	5.90000000e+02	2.29920548e+01	2.05489828e+03	2.31514282e+03	6.83844289e+05	7.37074180e+05	1.34949510e-05	3.99548478e-02	2.10531017e+03	2.01498559e+03	2.35805905e+02	0.00000000e+00	0.00000000e+00	0.00000000e+00
4.34932854e-02	6.10000000e+02	2.29920548e+01	2.12291258e+03	2.39365871e+03	7.24651892e+05	7.79687024e+05	1.39359246e-05	4.22941276e-02	2.15575492e+03	2.06543655e+03	2.39646946e+02	0.00000000e+00	0.00000000e+00	0.00000000e+00
4.34932854e-02	6.30000000e+02	2.29920548e+01	2.19032805e+03	2.47217319e+03	7.66448467e+05	8.23288808e+05	1.43747553e-05	4.46524367e-02	2.20420787e+03	2.11389495e+03	2.43429954e+02	0.00000000e+00	0.00000000e+00	0.00000000e+00
4.34932854e-02	6.50000000e+02	2.29920548e+01	2.25712100e+03	2.55068648e+03	8.09194897e+05	8.67840420e+05	1.48112703e-05	4.70265600e-02	2.25074257e+03	2.16043446e+03	2.47157385e+02	0.00000000e+00	0.00000000e+00	0.00000000e+00
4.34932854e-02	6.70000000e+02	2.29920548e+01	2.32327212e+03	2.62919872e+03	8.52853556e+05	9.13304237e+05	1.52453109e-05	4.94135186e-02	2.29543449e+03	2.20513066e+03	2.50831529e+02	0.00000000e+00	0.00000000e+00	0.00000000e+00
4.34932854e-02	6.90000000e+02	2.29920548e+01	2.38876608e+03	2.70771005e+03	8.97388344e+05	9.59644162e+05	1.56767309e-05	5.18105622e-02	2.33836010e+03	2.24806008e+03	2.54454524e+02	0.00000000e+00	0.00000000e+00	0.00000000e+00
7.46939225e-02	3.10000000e+02	1.33879701e+01	1.01951657e+03	2.08582574e+03	2.40510514e+05	2.68435487e+05	7.23759835e-06	1.16337448e-02	1.17495599e+03	1.08382915e+03	1.73837982e+02	0.00000000e+00	0.00000000e+00	0.00000000e+00
7.46939225e-02	3.30000000e+02	1.33879701e+01	1.08969931e+03	2.22101263e+03	2.62969829e+05	2.92704679e+05	7.67899808e-06	1.32173182e-02	1.25297841e+03	1.16201212e+03	1.78927804e+02	0.00000000e+00	0.00000000e+00	0.00000000e+00
7.46939225e-02	3.50000000e+02	1.33879701e+01	1.16033179e+03	2.35612857e+03	2.86985531e+05	3.18529310e+05	8.12311448e-06	1.48943433e-02	1.33022324e+03	1.23937904e+03	1.83883430e+02	0.00000000e+00	0.00000000e+00	0.00000000e+00
7.46939225e-02	3.70000000e+02	1.33879701e+01	1.23130503e+03	2.49119059e+03	3.12536372e+05	3.45888357e+05	8.56936101e-06	1.66574352e-02	1.40620673e+03	1.31545699e+03	1.88716503e+02	0.00000000e+00	0.00000000e+00	0.00000000e+00
7.46939225e-02	3.90000000e+02	1.33879701e+01	1.30250541e+03	2.62621099e+03	3.39592799e+05	3.74752433e+05	9.01720448e-06	1.84995603e-02	1.48056199e+03	1.38988649e+03	1.93436547e+02	0.00000000e+00	0.00000000e+00	0.00000000e+00
7.46939225e-02	4.10000000e+02	1.33879701e+01	1.37382086e+03	2.76119882e+03	3.68119079e+05	4.05085926e+05	9.46615981e-06	2.04140276e-02	1.55302219e+03	1.46240585e+03	1.98051555e+02	0.00000000e+00	0.00000000e+00	0.00000000e+00
7.46939225e-02	4.30000000e+02	1.33879701e+01	1.44514483e+03	2.89616084e+03	3.98075078e+05	4.36848793e+05	9.91578502e-06	2.23944811e-02	1.62340262e+03	1.53283405e+03	2.02568386e+02	0.00000000e+00	0.00000000e+00	0.00000000e+00
7.46939225e-02	4.50000000e+02	1.33879701e+01	1.51637861e+03	3.03110218e+03	4.29417712e+05	4.69998017e+05	1.03656767e-05	2.44348910e-02	1.69158405e+03	1.60105448e+03	2.06993041e+02	0.00000000e+00	0.00000000e+00	0.00000000e+00
7.46939225e-02	4.70000000e+02	1.33879701e+01	1.58743240e+03	3.16602678e+03	4.62102088e+05	5.04488759e+05	1.08154660e-05	2.65295460e-02	1.75749811e+03	1.66700075e+03	2.11330850e+02	0.00000000e+00	0.00000000e+00	0.00000000e+00
7.46939225e-02	4.90000000e+02	1.33879701e+01	1.65822573e+03	3.30093770e+03	4.96082387e+05	5.40275242e+05	1.12648152e-05	2.86730446e-02	1.82111540e+03	1.73064487e+03	2.15586599e+02	0.00000000e+00	0.00000000e+00	0.00000000e+00
7.46939225e-02	5.10000000e+02	1.33879701e+01	1.72868724e+03	3.43583733e+03	5.31312537e+05	5.77311425e+05	1.17134146e-05	3.08602875e-02	1.88243590e+03	1.79198796e+03	2.19764629e+02	0.00000000e+00	0.00000000e+00	0.00000000e+00
7.46939225e-02	5.30000000e+02	1.33879701e+01	1.79875432e+03	3.57072758e+03	5.67746714e+05	6.15551508e+05	1.21609798e-05	3.30864689e-02	1.94148163e+03	1.85105284e+03	2.23868897e+02	0.00000000e+00	0.00000000e+00	0.00000000e+00
7.46939225e-02	5.50000000e+02	1.33879701e+01	1.86837246e+03	3.70560999e+03	6.05339721e+05	6.54950316e+05	1.26072498e-05	3.53470687e-02	1.99829096e+03	1.90787855e+03	2.27903037e+02	0.00000000e+00	0.00000000e+00	0.00000000e+00
7.46939225e-02	5.70000000e+02	1.33879701e+01	1.93749462e+03	3.84048578e+03	6.44047266e+05	6.95463575e+05	1.30519843e-05	3.76378440e-02	2.05291435e+03	1.96251604e+03	2.31870392e+02	0.00000000e+00	0.00000000e+00	0.00000000e+00
7.46939225e-02	5.90000000e+02	1.33879701e+01	2.00608053e+03	3.97535596e+03	6.83826171e+05	7.37048118e+05	1.34949623e-05	3.99548212e-02	2.10541111e+03	2.01502503e+03	2.35774052e+02	0.00000000e+00	0.00000000e+00	0.00000000e+00
7.46939225e-02	6.10000000e+02	1.33879701e+01	2.07409607e+03	4.11022134e+03	7.24634517e+05	7.79662037e+05	1.39359806e-05	4.22942876e-02	2.15584697e+03	2.06547157e+03	2.39616880e+02	0.00000000e+00	0.00000000e+00	0.00000000e+00
7.46939225e-02	6.30000000e+02	1.33879701e+01	2.14151261e+03	4.24508260e+03	7.66431753e+05	8.23264792e+05	1.43748520e-05	4.46527833e-02	2.20429221e+03	2.11392618e+03	2.43401534e+02	0.00000000e+00	0.00000000e+00	0.00000000e+00
7.46939225e-02	6.50000000e+02	1.33879701e+01	2.20830648e+03	4.37994032e+03	8.09178774e+05	8.67817284e+05	1.48114042e-05	4.70270932e-02	2.25082018e+03	2.16046242e+03	2.47130487e+02	0.00000000e+00	0.00000000e+00	0.00000000e+00
7.46939225e-02	6.70000000e+02	1.33879701e+01	2.27445841e+03	4.51479495e+03	8.52837964e+05	9.13281904e+05	1.52454789e-05	4.94142385e-02	2.29550620e+03	2.20515579e+03	2.50806043e+02	0.00000000e+00	0.00000000e+00	0.00000000e+00
7.46939225e-02	6.90000000e+02	1.33879701e+01	2.33995307e+03	4.64964689e+03	8.97373230e+05	9.59622563e+05	1.56769302e-05	5.18114687e-02	2.33842662e+03	2.24808275e+03	2.54430356e+02	0.00000000e+00	0.00000000e+00	0.00000000e+00
1.28276860e-01	3.10000000e+02	7.79563830e+00	9.70512613e+02	3.57761010e+03	2.40412227e+05	2.68301981e+05	7.23455781e-06	1.16292398e-02	1.17629874e+03	1.08452982e+03	1.73661267e+02	0.00000000e+00	0.00000000e+00	0.00000000e+00
1.28276860e-01	3.30000000e+02	7.79563830e+00	1.04073453e+03	3.81024496e+03	2.62884055e+05	2.92587346e+05	7.67649143e-06	1.32131269e-02	1.25406131e+03	1.16256980e+03	1.78771849e+02	0.00000000e+00	0.00000000e+00	0.00000000e+00
1.28276860e-01	3.50000000e+02	7.79563830e+00	1.11139653e+03	4.04267050e+03	2.86909784e+05	3.18424981e+05	8.12103380e-06	1.48904678e-02	1.33110977e+03	1.23982896e+03	1.83744394e+02	0.00000000e+00	0.00000000e+00	0.00000000e+00
1.28276860e-01	3.70000000e+02	7.79563830e+00	1.18239240e+03	4.27493699e+03	3.12468762e+05	3.45794625e+05	8.56762849e-06	1.66538767e-02	1.40694228e+03	1.31582438e+03	1.88591460e+02	0.00000000e+00	0.00000000e+00	0.00000000e+00
1.28276860e-01	3.90000000e+02	7.79563830e+00	1.25361038e+03	4.50708072e+03	3.39531870e+05	3.74667441e+05	9.01576227e-06	1.84963197e-02	1.48117969e+03	1.39018973e+03	1.93323230e+02	0.00000000e+00	0.00000000e+00	0.00000000e+00
1.28276860e-01	4.10000000e+02	7.79563830e+00	1.32493969e+03	4.73912838e+03	3.68063690e+05	4.05008221e+05	9.46496373e-06	2.04111056e-02	1.55354662e+03	1.46265859e+03	1.97948179e+02	0.00000000e+00	0.00000000e+00	0.00000000e+00
1.28276860e-01	4.30000000e+02	7.79563830e+00	1.39627472e+03	4.97109992e+03	3.98024326e+05	4.36777223e+05	9.91480048e-06	2.23918781e-02	1.62385235e+03	1.53304656e+03	2.02473532e+02	0.00000000e+00	0.00000000e+00	0.00000000e+00
1.28276860e-01	4.50000000e+02	7.79563830e+00	1.46751740e+03	5.20301047e+03	4.29370875e+05	4.69931663e+05	1.03648761e-05	2.44326074e-02	1.69197325e+03	1.60123462e+03	2.06905565e+02	0.00000000e+00	0.00000000e+00	0.00000000e+00
1.28276860e-01	4.70000000e+02	7.79563830e+00	1.53857844e+03	5.43487163e+03	4.62058582e+05	5.04426875e+05	1.08148268e-05	2.65275819e-02	1.75783778e+03	1.66715456e+03	2.11249820e+02	0.00000000e+00	0.00000000e+00	0.00000000e+00
1.28276860e-01	4.90000000e+02	7.79563830e+00	1.60937772e+03	5.66669243e+03	4.96041735e+05	5.40217220e+05	1.12643188e-05	2.86714002e-02	1.82141415e+03	1.73077712e+03	2.15511250e+02	0.00000000e+00	0.00000000e+00	0.00000000e+00
1.28276860e-01	5.10000000e+02	7.79563830e+00	1.67984416e+03	5.89847996e+03	5.31274346e+05	5.77256763e+05	1.17130453e-05	3.08589630e-02	1.88270056e+03	1.79210238e+03	2.19694323e+02	0.00000000e+00	0.00000000e+00	0.00000000e+00
1.28276860e-01	5.30000000e+02	7.79563830e+00	1.74991535e+03	6.13023983e+03	5.67710659e+05	6.15499791e+05	1.21607245e-05	3.30854644e-02	1.94171766e+03	1.85115242e+03	2.23803103e+02	0.00000000e+00	0.00000000e+00	0.00000000e+00